 Q-Chem 5.4 (devel), Q-Chem, Inc., Pleasanton, CA (2021)
 Q-Chem 5.4.1 for Intel X86 EM64T Linux

User input:
--------------------------------------------------------------
$molecule
+1 1
H      0.000000    0.000000    3.5220000000000002
Au     0.000000    0.000000    2.222000
Au    -1.392000    0.000000    0.000000
Au     1.393000    0.000000    0.000000
Au     0.000000    0.000000   -2.411000
Au     2.626000    0.000000   -2.315000
Au    -2.614000    0.000000   -2.320000
Au     0.000000    0.000000    4.822
Au    -1.392000    0.000000    7.0440000000000005
Au     1.393000    0.000000    7.0440000000000005
Au     0.000000    0.000000    9.455
Au     2.626000    0.000000    9.359
Au    -2.614000    0.000000    9.364
$end
$rem
jobtype = sp
sym_ignore = false
input_bohr = false
method = b3lyp
SCF_ALGORITHM = GDM
MAX_SCF_CYCLES=500
SCF_CONVERGENCE = 8
MEM_TOTAL = 100000
ECP = fit-LANL2DZ
basis = general
IANLTY     200
ESP_GRID     -1
$end

$basis
   H 0
   def2-qzvp
   ****
   Au 0
   LANL2DZ
   ****
$end

$plots
   plot the electrostatic potential on a line
   14001   -7.0   7.0
   1   0.0   0.0
   1   0.0   0.0
   0  0  0  0
   0
$end
--------------------------------------------------------------

             Standard Nuclear Orientation (Angstroms)
    I     Atom           X                Y                Z
 ----------------------------------------------------------------
    1      H       0.0000000000    -0.0000000000     0.0021643836
    2      Au     -1.3000000000     0.0000000000     0.0021643836
    3      Au     -3.5220000000     0.0000000000     1.3941643836
    4      Au     -3.5220000000     0.0000000000    -1.3908356164
    5      Au     -5.9330000000     0.0000000000     0.0021643836
    6      Au     -5.8370000000     0.0000000000    -2.6238356164
    7      Au     -5.8420000000     0.0000000000     2.6161643836
    8      Au      1.3000000000    -0.0000000000     0.0021643836
    9      Au      3.5220000000    -0.0000000000     1.3941643836
   10      Au      3.5220000000    -0.0000000000    -1.3908356164
   11      Au      5.9330000000    -0.0000000000     0.0021643836
   12      Au      5.8370000000    -0.0000000000    -2.6238356164
   13      Au      5.8420000000    -0.0000000000     2.6161643836
 ----------------------------------------------------------------

   23   -1626.1441492456      5.45e-09  Convergence criterion met
 Total energy in the final basis set =    -1626.1441492456

             Orbital Energies (a.u.) and Symmetries
 --------------------------------------------------------------

 Alpha MOs, Restricted
 -- Occupied --
 -4.340  -4.340  -4.296  -4.296  -4.296  -4.296  -4.293  -4.293
  1 A1    1 B1    2 B1    2 A1    3 B1    3 A1    4 B1    4 A1
 -4.278  -4.278  -4.278  -4.278  -2.506  -2.492  -2.465  -2.464
  5 B1    5 A1    6 B1    6 A1    7 A1    7 B1    8 A1    8 B1
 -2.457  -2.456  -2.438  -2.438  -2.437  -2.437  -2.434  -2.434
  1 B2    1 A2    9 A1    9 B1   10 A1   10 B1   11 A1   11 B1
 -2.431  -2.431  -2.426  -2.426  -2.426  -2.426  -2.420  -2.420
 12 B1   12 A1   13 B1   13 A1   14 B1   14 A1    2 A2    2 B2
 -2.420  -2.420  -2.417  -2.417  -2.417  -2.417  -2.416  -2.416
  3 A2    3 B2    4 A2    4 B2   15 A1   15 B1   16 B1   16 A1
 -2.411  -2.411  -2.411  -2.411  -2.403  -2.403  -2.403  -2.403
 17 A1   17 B1   18 B1   18 A1    5 A2    5 B2    6 A2    6 B2
 -0.779  -0.560  -0.551  -0.538  -0.538  -0.534  -0.533  -0.514
 19 A1   20 A1   19 B1   21 A1   20 B1    7 B2   21 B1   22 A1
 -0.509  -0.506  -0.506  -0.495  -0.494  -0.494  -0.492  -0.485
 23 A1   22 B1   24 A1   23 B1    7 A2   24 B1   25 A1    8 B2
 -0.482  -0.470  -0.470  -0.468  -0.467  -0.465  -0.464  -0.460
  8 A2   26 A1    9 B2   10 B2    9 A2   10 A2   27 A1   11 B2
 -0.459  -0.457  -0.450  -0.443  -0.443  -0.441  -0.438  -0.436
 25 B1   26 B1   27 B1   11 A2   12 B2   12 A2   28 A1   29 A1
 -0.433  -0.428  -0.428  -0.427  -0.427  -0.425  -0.425  -0.424
 28 B1   30 A1   29 B1   13 B2   13 A2   31 A1   30 B1   31 B1
 -0.420  -0.420  -0.418  -0.415  -0.415  -0.414  -0.412  -0.410
 14 B2   14 A2   32 A1   15 B2   15 A2   32 B1   33 A1   16 B2
 -0.409  -0.409  -0.409  -0.407  -0.404  -0.403  -0.402  -0.402
 33 B1   34 A1   34 B1   35 A1   16 A2   36 A1   17 B2   17 A2
 -0.401  -0.396  -0.396  -0.392  -0.391  -0.389  -0.386  -0.363
 35 B1   18 A2   18 B2   37 A1   36 B1   37 B1   38 A1   39 A1
 -0.362  -0.353
 38 B1   39 B1

 Beta MOs, Restricted
 -- Occupied --
 -4.340  -4.340  -4.296  -4.296  -4.296  -4.296  -4.293  -4.293
  1 A1    1 B1    2 B1    2 A1    3 B1    3 A1    4 B1    4 A1
 -4.278  -4.278  -4.278  -4.278  -2.506  -2.492  -2.465  -2.464
  5 B1    5 A1    6 B1    6 A1    7 A1    7 B1    8 A1    8 B1
 -2.457  -2.456  -2.438  -2.438  -2.437  -2.437  -2.434  -2.434
  1 B2    1 A2    9 A1    9 B1   10 A1   10 B1   11 A1   11 B1
 -2.431  -2.431  -2.426  -2.426  -2.426  -2.426  -2.420  -2.420
 12 B1   12 A1   13 B1   13 A1   14 B1   14 A1    2 A2    2 B2
 -2.420  -2.420  -2.417  -2.417  -2.417  -2.417  -2.416  -2.416
  3 A2    3 B2    4 A2    4 B2   15 A1   15 B1   16 B1   16 A1
 -2.411  -2.411  -2.411  -2.411  -2.403  -2.403  -2.403  -2.403
 17 A1   17 B1   18 B1   18 A1    5 A2    5 B2    6 A2    6 B2
 -0.779  -0.560  -0.551  -0.538  -0.538  -0.534  -0.533  -0.514
 19 A1   20 A1   19 B1   21 A1   20 B1    7 B2   21 B1   22 A1
 -0.509  -0.506  -0.506  -0.495  -0.494  -0.494  -0.492  -0.485
 23 A1   22 B1   24 A1   23 B1    7 A2   24 B1   25 A1    8 B2
 -0.482  -0.470  -0.470  -0.468  -0.467  -0.465  -0.464  -0.460
  8 A2   26 A1    9 B2   10 B2    9 A2   10 A2   27 A1   11 B2
 -0.459  -0.457  -0.450  -0.443  -0.443  -0.441  -0.438  -0.436
 25 B1   26 B1   27 B1   11 A2   12 B2   12 A2   28 A1   29 A1
 -0.433  -0.428  -0.428  -0.427  -0.427  -0.425  -0.425  -0.424
 28 B1   30 A1   29 B1   13 B2   13 A2   31 A1   30 B1   31 B1
 -0.420  -0.420  -0.418  -0.415  -0.415  -0.414  -0.412  -0.410
 14 B2   14 A2   32 A1   15 B2   15 A2   32 B1   33 A1   16 B2
 -0.409  -0.409  -0.409  -0.407  -0.404  -0.403  -0.402  -0.402
 33 B1   34 A1   34 B1   35 A1   16 A2   36 A1   17 B2   17 A2
 -0.401  -0.396  -0.396  -0.392  -0.391  -0.389  -0.386  -0.363
 35 B1   18 A2   18 B2   37 A1   36 B1   37 B1   38 A1   39 A1
 -0.362  -0.353
 38 B1   39 B1

          Ground-State Mulliken Net Atomic Charges

     Atom                 Charge (a.u.)
  ----------------------------------------
      1 H                    -1.236789
      2 Au                    0.977087
      3 Au                    0.113694
      4 Au                    0.113740
      5 Au                    0.051628
      6 Au                   -0.069149
      7 Au                   -0.068606
      8 Au                    0.977087
      9 Au                    0.113694
     10 Au                    0.113740
     11 Au                    0.051628
     12 Au                   -0.069149
     13 Au                   -0.068606
  ----------------------------------------
  Sum of atomic charges =     1.000000

                    Cartesian Multipole Moments
 -----------------------------------------------------------------
    Charge (ESU x 10^10)
                 4.8032
    Dipole Moment (Debye)
         X      -0.0000000649      Y       0.0000000000      Z       0.0283876162
       Tot       0.0283876162
    Quadrupole Moments (Debye-Ang)
        XX    -126.1481     XY       0.0000     YY    -277.9711
        XZ      -0.0000     YZ       0.0000     ZZ    -232.8755

 Total job time:  20.49s(wall), 323.27s(cpu)
        *  Thank you very much for using Q-Chem.  Have a nice day.  *
