 Q-Chem 5.4 (devel), Q-Chem, Inc., Pleasanton, CA (2021)
 Q-Chem 5.4.1 for Intel X86 EM64T Linux

User input:
--------------------------------------------------------------
$molecule
+1 1
H      0.000000    0.000000    4.2219999999999995
Au     0.000000    0.000000    2.222000
Au    -1.392000    0.000000    0.000000
Au     1.393000    0.000000    0.000000
Au     0.000000    0.000000   -2.411000
Au     2.626000    0.000000   -2.315000
Au    -2.614000    0.000000   -2.320000
Au     0.000000    0.000000    6.2219999999999995
Au    -1.392000    0.000000    8.443999999999999
Au     1.393000    0.000000    8.443999999999999
Au     0.000000    0.000000    10.855
Au     2.626000    0.000000    10.759
Au    -2.614000    0.000000    10.764
$end
$rem
jobtype = sp
sym_ignore = false
input_bohr = false
method = b3lyp
SCF_ALGORITHM = GDM
MAX_SCF_CYCLES=500
SCF_CONVERGENCE = 8
MEM_TOTAL = 100000
ECP = fit-LANL2DZ
basis = general
IANLTY     200
ESP_GRID     -1
$end

$basis
   H 0
   def2-qzvp
   ****
   Au 0
   LANL2DZ
   ****
$end

$plots
   plot the electrostatic potential on a line
   14001   -7.0   7.0
   1   0.0   0.0
   1   0.0   0.0
   0  0  0  0
   0
$end
--------------------------------------------------------------

             Standard Nuclear Orientation (Angstroms)
    I     Atom           X                Y                Z
 ----------------------------------------------------------------
    1      H       0.0000000000     0.0000000000     0.0021643836
    2      Au     -2.0000000000     0.0000000000     0.0021643836
    3      Au     -4.2220000000     0.0000000000     1.3941643836
    4      Au     -4.2220000000     0.0000000000    -1.3908356164
    5      Au     -6.6330000000     0.0000000000     0.0021643836
    6      Au     -6.5370000000     0.0000000000    -2.6238356164
    7      Au     -6.5420000000     0.0000000000     2.6161643836
    8      Au      2.0000000000    -0.0000000000     0.0021643836
    9      Au      4.2220000000    -0.0000000000     1.3941643836
   10      Au      4.2220000000    -0.0000000000    -1.3908356164
   11      Au      6.6330000000    -0.0000000000     0.0021643836
   12      Au      6.5370000000    -0.0000000000    -2.6238356164
   13      Au      6.5420000000    -0.0000000000     2.6161643836
 ----------------------------------------------------------------

   22   -1626.2349612024      8.84e-09  Convergence criterion met
 Total energy in the final basis set =    -1626.2349612024

             Orbital Energies (a.u.) and Symmetries
 --------------------------------------------------------------

 Alpha MOs, Restricted
 -- Occupied --
 -4.298  -4.298  -4.297  -4.297  -4.293  -4.293  -4.293  -4.293
  1 A1    1 B1    2 B1    2 A1    3 A1    3 B1    4 B1    4 A1
 -4.277  -4.277  -4.277  -4.277  -2.443  -2.443  -2.438  -2.438
  5 B1    5 A1    6 B1    6 A1    7 A1    7 B1    8 A1    8 B1
 -2.435  -2.435  -2.433  -2.433  -2.431  -2.431  -2.427  -2.427
  9 A1    9 B1   10 A1   10 B1   11 A1   11 B1   12 A1   12 B1
 -2.426  -2.426  -2.424  -2.424  -2.420  -2.420  -2.419  -2.419
 13 B1   13 A1   14 B1   14 A1    1 B2    1 A2    2 B2    2 A2
 -2.417  -2.417  -2.417  -2.417  -2.416  -2.416  -2.415  -2.415
  3 A2    3 B2    4 A2    4 B2   15 B1   15 A1   16 A1   16 B1
 -2.410  -2.410  -2.410  -2.410  -2.402  -2.402  -2.402  -2.402
 17 B1   17 A1   18 B1   18 A1    5 B2    5 A2    6 B2    6 A2
 -0.561  -0.545  -0.533  -0.531  -0.531  -0.530  -0.505  -0.505
 19 A1   19 B1   20 A1   21 A1   20 B1   21 B1   22 B1   22 A1
 -0.490  -0.490  -0.490  -0.488  -0.483  -0.482  -0.479  -0.479
 23 A1   24 A1   23 B1   24 B1    7 B2    7 A2   25 A1    8 B2
 -0.479  -0.466  -0.466  -0.453  -0.453  -0.453  -0.452  -0.438
  8 A2    9 B2    9 A2   10 B2   26 A1   10 A2   25 B1   27 A1
 -0.438  -0.435  -0.435  -0.433  -0.432  -0.431  -0.431  -0.431
 26 B1   11 B2   27 B1   11 A2   28 A1   28 B1   12 B2   12 A2
 -0.427  -0.427  -0.427  -0.427  -0.423  -0.423  -0.422  -0.422
 29 A1   13 B2   13 A2   29 B1   30 A1   30 B1   31 A1   31 B1
 -0.416  -0.416  -0.415  -0.415  -0.412  -0.410  -0.407  -0.407
 14 B2   14 A2   15 B2   15 A2   32 A1   32 B1   33 A1   33 B1
 -0.405  -0.404  -0.401  -0.400  -0.399  -0.399  -0.398  -0.398
 34 A1   34 B1   16 B2   16 A2   35 A1   35 B1   17 B2   17 A2
 -0.396  -0.396  -0.395  -0.388  -0.387  -0.387  -0.386  -0.360
 18 A2   18 B2   36 A1   36 B1   37 A1   37 B1   38 A1   39 A1
 -0.360  -0.355
 38 B1   39 B1

 Beta MOs, Restricted
 -- Occupied --
 -4.298  -4.298  -4.297  -4.297  -4.293  -4.293  -4.293  -4.293
  1 A1    1 B1    2 B1    2 A1    3 A1    3 B1    4 B1    4 A1
 -4.277  -4.277  -4.277  -4.277  -2.443  -2.443  -2.438  -2.438
  5 B1    5 A1    6 B1    6 A1    7 A1    7 B1    8 A1    8 B1
 -2.435  -2.435  -2.433  -2.433  -2.431  -2.431  -2.427  -2.427
  9 A1    9 B1   10 A1   10 B1   11 A1   11 B1   12 A1   12 B1
 -2.426  -2.426  -2.424  -2.424  -2.420  -2.420  -2.419  -2.419
 13 B1   13 A1   14 B1   14 A1    1 B2    1 A2    2 B2    2 A2
 -2.417  -2.417  -2.417  -2.417  -2.416  -2.416  -2.415  -2.415
  3 A2    3 B2    4 A2    4 B2   15 B1   15 A1   16 A1   16 B1
 -2.410  -2.410  -2.410  -2.410  -2.402  -2.402  -2.402  -2.402
 17 B1   17 A1   18 B1   18 A1    5 B2    5 A2    6 B2    6 A2
 -0.561  -0.545  -0.533  -0.531  -0.531  -0.530  -0.505  -0.505
 19 A1   19 B1   20 A1   21 A1   20 B1   21 B1   22 B1   22 A1
 -0.490  -0.490  -0.490  -0.488  -0.483  -0.482  -0.479  -0.479
 23 A1   24 A1   23 B1   24 B1    7 B2    7 A2   25 A1    8 B2
 -0.479  -0.466  -0.466  -0.453  -0.453  -0.453  -0.452  -0.438
  8 A2    9 B2    9 A2   10 B2   26 A1   10 A2   25 B1   27 A1
 -0.438  -0.435  -0.435  -0.433  -0.432  -0.431  -0.431  -0.431
 26 B1   11 B2   27 B1   11 A2   28 A1   28 B1   12 B2   12 A2
 -0.427  -0.427  -0.427  -0.427  -0.423  -0.423  -0.422  -0.422
 29 A1   13 B2   13 A2   29 B1   30 A1   30 B1   31 A1   31 B1
 -0.416  -0.416  -0.415  -0.415  -0.412  -0.410  -0.407  -0.407
 14 B2   14 A2   15 B2   15 A2   32 A1   32 B1   33 A1   33 B1
 -0.405  -0.404  -0.401  -0.400  -0.399  -0.399  -0.398  -0.398
 34 A1   34 B1   16 B2   16 A2   35 A1   35 B1   17 B2   17 A2
 -0.396  -0.396  -0.395  -0.388  -0.387  -0.387  -0.386  -0.360
 18 A2   18 B2   36 A1   36 B1   37 A1   37 B1   38 A1   39 A1
 -0.360  -0.355
 38 B1   39 B1

          Ground-State Mulliken Net Atomic Charges

     Atom                 Charge (a.u.)
  ----------------------------------------
      1 H                     0.425533
      2 Au                   -0.109510
      3 Au                    0.187653
      4 Au                    0.186993
      5 Au                    0.095676
      6 Au                   -0.036872
      7 Au                   -0.036704
      8 Au                   -0.109510
      9 Au                    0.187652
     10 Au                    0.186993
     11 Au                    0.095676
     12 Au                   -0.036872
     13 Au                   -0.036704
  ----------------------------------------
  Sum of atomic charges =     1.000000

                    Cartesian Multipole Moments
 -----------------------------------------------------------------
    Charge (ESU x 10^10)
                 4.8032
    Dipole Moment (Debye)
         X      -0.0000003895      Y      -0.0000000000      Z       0.0258471019
       Tot       0.0258471019
    Quadrupole Moments (Debye-Ang)
        XX     -80.1959     XY       0.0000     YY    -278.8800
        XZ       0.0000     YZ       0.0000     ZZ    -232.1792

 Total job time:  14.34s(wall), 241.90s(cpu)
        *  Thank you very much for using Q-Chem.  Have a nice day.  *
