 Q-Chem 5.4 (devel), Q-Chem, Inc., Pleasanton, CA (2021)
 Q-Chem 5.4.1 for Intel X86 EM64T Linux

User input:
--------------------------------------------------------------
$molecule
+1 1
H      0.000000    0.000000    3.9619999999999997
Au     0.000000    0.000000    2.222000
Au    -1.392000    0.000000    0.000000
Au     1.393000    0.000000    0.000000
Au     0.000000    0.000000   -2.411000
Au     2.626000    0.000000   -2.315000
Au    -2.614000    0.000000   -2.320000
Au     0.000000    0.000000    5.702
Au    -1.392000    0.000000    7.9239999999999995
Au     1.393000    0.000000    7.9239999999999995
Au     0.000000    0.000000    10.335
Au     2.626000    0.000000    10.239
Au    -2.614000    0.000000    10.244
$end
$rem
jobtype = sp
sym_ignore = false
input_bohr = false
method = b3lyp
SCF_ALGORITHM = GDM
MAX_SCF_CYCLES=500
SCF_CONVERGENCE = 8
MEM_TOTAL = 100000
ECP = fit-LANL2DZ
basis = general
NEO = TRUE
NEO_EPC = epc172
NEO_PURECART = 1111
NEO_VPP = 0
NEO_N_SCF_CONVERGENCE = 8
NEO_E_CONV = 8
MAKE_CUBE_FILES = true
plots = true
$end

$basis
   H 0
   def2-qzvp
   ****
   Au 0
   LANL2DZ
   ****
$end

$neo_basis
H    1
S    1    1.000000
   5.973 1.0
S    1    1.000000
   10.645 1.0
S    1    1.000000
   17.943 1.0
S    1    1.000000
   28.950 1.0
P    1    1.000000
   7.604 1.0
P    1    1.000000
   14.701 1.0
P    1    1.000000
   23.308 1.0
D    1    1.000000
   9.011 1.0
D    1    1.000000
   19.787 1.0
F    1    1.000000
   10.914 1.0
F    1    1.000000
   20.985 1.0
****
$end

$neo_tdks
dt  0.1
maxiter 1
field_type delta
field_amp 0e-2
in_cavity false 2.01 2 1e-2 100
rt_thresh 2
moving_classical_nuclei false
moving_proton_basis_center false
save_per_iter 400
plt_params 80 -10.0 10.0
enforce_eh true
$end
--------------------------------------------------------------

             Standard Nuclear Orientation (Angstroms)
    I     Atom           X                Y                Z
 ----------------------------------------------------------------
    1      H       0.0000000000    -0.0000000000     0.0021643836
    2      Au     -1.7400000000     0.0000000000     0.0021643836
    3      Au     -3.9620000000     0.0000000000     1.3941643836
    4      Au     -3.9620000000     0.0000000000    -1.3908356164
    5      Au     -6.3730000000     0.0000000000     0.0021643836
    6      Au     -6.2770000000     0.0000000000    -2.6238356164
    7      Au     -6.2820000000     0.0000000000     2.6161643836
    8      Au      1.7400000000    -0.0000000000     0.0021643836
    9      Au      3.9620000000    -0.0000000000     1.3941643836
   10      Au      3.9620000000    -0.0000000000    -1.3908356164
   11      Au      6.3730000000    -0.0000000000     0.0021643836
   12      Au      6.2770000000    -0.0000000000    -2.6238356164
   13      Au      6.2820000000    -0.0000000000     2.6161643836
 ----------------------------------------------------------------

   25   -1626.2605306871      7.06e-09  Convergence criterion met
 Total energy in the final basis set =    -1626.2605306871
    2    2516.9960350798      1.24e-14  Convergence criterion met
   24   -1626.2222131831      6.62e-09  Convergence criterion met
   10   -1626.2500087711      8.26e-09  Convergence criterion met
   20   -1626.2502016912      1.06e-09  Convergence criterion met
   10   -1626.2502209496      1.66e-09  Convergence criterion met
   16   -1626.2502230995      7.05e-09  Convergence criterion met
    9   -1626.2502233433      4.47e-09  Convergence criterion met
   14   -1626.2502233712      9.01e-09  Convergence criterion met
    8   -1626.2502233747      7.05e-09  Convergence criterion met
   14   -1626.2502233755      8.03e-10  Convergence criterion met

 Nuclear Orbital Energies (a.u.)
 ---------------------------------------
  -- Occupied --
   -0.8122

Ground-State Mulliken Net Atomic Charges

     Atom                 Charge (a.u.)
  ----------------------------------------
      0                    -0.399653
      1                    0.336659
      2                    0.194846
      3                    0.194224
      4                    0.071201
      5                    -0.048674
      6                    -0.048429
      7                    0.336659
      8                    0.194846
      9                    0.194224
      10                    0.071201
      11                    -0.048674
      12                    -0.048429
----------------------------------------
 Sum of atomic charges =   1.000000

 Total job time:  518.62s(wall), 15054.81s(cpu)
        *  Thank you very much for using Q-Chem.  Have a nice day.  *
