 Q-Chem 5.4 (devel), Q-Chem, Inc., Pleasanton, CA (2021)
 Q-Chem 5.4.1 for Intel X86 EM64T Linux

User input:
--------------------------------------------------------------
$molecule
+1 1
H      0.000000    0.000000    4.622
Au     0.000000    0.000000    2.222000
Au    -1.392000    0.000000    0.000000
Au     1.393000    0.000000    0.000000
Au     0.000000    0.000000   -2.411000
Au     2.626000    0.000000   -2.315000
Au    -2.614000    0.000000   -2.320000
Au     0.000000    0.000000    7.022
Au    -1.392000    0.000000    9.244
Au     1.393000    0.000000    9.244
Au     0.000000    0.000000    11.655000000000001
Au     2.626000    0.000000    11.559000000000001
Au    -2.614000    0.000000    11.564
$end
$rem
jobtype = sp
sym_ignore = false
input_bohr = false
method = b3lyp
SCF_ALGORITHM = GDM
MAX_SCF_CYCLES=500
SCF_CONVERGENCE = 8
MEM_TOTAL = 100000
ECP = fit-LANL2DZ
basis = general
NEO = TRUE
NEO_EPC = epc172
NEO_PURECART = 1111
NEO_VPP = 0
NEO_N_SCF_CONVERGENCE = 8
NEO_E_CONV = 8
MAKE_CUBE_FILES = true
plots = true
$end

$basis
   H 0
   def2-qzvp
   ****
   Au 0
   LANL2DZ
   ****
$end

$neo_basis
H    1
S    1    1.000000
   5.973 1.0
S    1    1.000000
   10.645 1.0
S    1    1.000000
   17.943 1.0
S    1    1.000000
   28.950 1.0
P    1    1.000000
   7.604 1.0
P    1    1.000000
   14.701 1.0
P    1    1.000000
   23.308 1.0
D    1    1.000000
   9.011 1.0
D    1    1.000000
   19.787 1.0
F    1    1.000000
   10.914 1.0
F    1    1.000000
   20.985 1.0
****
$end

$neo_tdks
dt  0.1
maxiter 1
field_type delta
field_amp 0e-2
in_cavity false 2.01 2 1e-2 100
rt_thresh 2
moving_classical_nuclei false
moving_proton_basis_center false
save_per_iter 400
plt_params 80 -10.0 10.0
enforce_eh true
$end
--------------------------------------------------------------

             Standard Nuclear Orientation (Angstroms)
    I     Atom           X                Y                Z
 ----------------------------------------------------------------
    1      H      -0.0000000000     0.0000000000     0.0021643836
    2      Au     -2.4000000000    -0.0000000000     0.0021643836
    3      Au     -4.6220000000    -0.0000000000     1.3941643836
    4      Au     -4.6220000000    -0.0000000000    -1.3908356164
    5      Au     -7.0330000000    -0.0000000000     0.0021643836
    6      Au     -6.9370000000    -0.0000000000    -2.6238356164
    7      Au     -6.9420000000    -0.0000000000     2.6161643836
    8      Au      2.4000000000     0.0000000000     0.0021643836
    9      Au      4.6220000000     0.0000000000     1.3941643836
   10      Au      4.6220000000     0.0000000000    -1.3908356164
   11      Au      7.0330000000     0.0000000000     0.0021643836
   12      Au      6.9370000000     0.0000000000    -2.6238356164
   13      Au      6.9420000000     0.0000000000     2.6161643836
 ----------------------------------------------------------------

   27   -1626.1879580050      6.74e-09  Convergence criterion met
 Total energy in the final basis set =    -1626.1879580050
    2    2411.7322882505      1.08e-14  Convergence criterion met
   23   -1626.1553505107      4.99e-09  Convergence criterion met
   11   -1626.1824527984      8.12e-09  Convergence criterion met
   21   -1626.1825194627      4.89e-09  Convergence criterion met
    9   -1626.1825205969      7.36e-09  Convergence criterion met
   20   -1626.1825206677      6.85e-10  Convergence criterion met
    8   -1626.1825206726      4.93e-09  Convergence criterion met
   12   -1626.1825206731      3.69e-09  Convergence criterion met

 Nuclear Orbital Energies (a.u.)
 ---------------------------------------
  -- Occupied --
   -0.7846

Ground-State Mulliken Net Atomic Charges

     Atom                 Charge (a.u.)
  ----------------------------------------
      0                    0.250622
      1                    -0.009259
      2                    0.152626
      3                    0.151993
      4                    0.135690
      5                    -0.028232
      6                    -0.028128
      7                    -0.009259
      8                    0.152626
      9                    0.151993
      10                    0.135690
      11                    -0.028232
      12                    -0.028128
----------------------------------------
 Sum of atomic charges =   1.000000

 Total job time:  409.56s(wall), 11780.10s(cpu)
        *  Thank you very much for using Q-Chem.  Have a nice day.  *
