 Q-Chem 5.4 (devel), Q-Chem, Inc., Pleasanton, CA (2021)
 Q-Chem 5.4.1 for Intel X86 EM64T Linux

User input:
--------------------------------------------------------------
$molecule
+1 1
H      0.000000    0.000000    3.892
Au     0.000000    0.000000    2.222000
Au    -1.392000    0.000000    0.000000
Au     1.393000    0.000000    0.000000
Au     0.000000    0.000000   -2.411000
Au     2.626000    0.000000   -2.315000
Au    -2.614000    0.000000   -2.320000
Au     0.000000    0.000000    5.561999999999999
Au    -1.392000    0.000000    7.783999999999999
Au     1.393000    0.000000    7.783999999999999
Au     0.000000    0.000000    10.195
Au     2.626000    0.000000    10.099
Au    -2.614000    0.000000    10.104
$end
$rem
jobtype = sp
sym_ignore = false
input_bohr = false
method = b3lyp
SCF_ALGORITHM = GDM
MAX_SCF_CYCLES=500
SCF_CONVERGENCE = 8
MEM_TOTAL = 100000
ECP = fit-LANL2DZ
basis = general
NEO = TRUE
NEO_EPC = epc172
NEO_PURECART = 1111
NEO_VPP = 0
NEO_N_SCF_CONVERGENCE = 8
NEO_E_CONV = 8
MAKE_CUBE_FILES = true
plots = true
$end

$basis
   H 0
   def2-qzvp
   ****
   Au 0
   LANL2DZ
   ****
$end

$neo_basis
H    1
S    1    1.000000
   5.973 1.0
S    1    1.000000
   10.645 1.0
S    1    1.000000
   17.943 1.0
S    1    1.000000
   28.950 1.0
P    1    1.000000
   7.604 1.0
P    1    1.000000
   14.701 1.0
P    1    1.000000
   23.308 1.0
D    1    1.000000
   9.011 1.0
D    1    1.000000
   19.787 1.0
F    1    1.000000
   10.914 1.0
F    1    1.000000
   20.985 1.0
****
$end

$neo_tdks
dt  0.1
maxiter 1
field_type delta
field_amp 0e-2
in_cavity false 2.01 2 1e-2 100
rt_thresh 2
moving_classical_nuclei false
moving_proton_basis_center false
save_per_iter 400
plt_params 80 -10.0 10.0
enforce_eh true
$end
--------------------------------------------------------------

             Standard Nuclear Orientation (Angstroms)
    I     Atom           X                Y                Z
 ----------------------------------------------------------------
    1      H      -0.0000000000     0.0000000000     0.0021643836
    2      Au     -1.6700000000    -0.0000000000     0.0021643836
    3      Au     -3.8920000000    -0.0000000000     1.3941643836
    4      Au     -3.8920000000    -0.0000000000    -1.3908356164
    5      Au     -6.3030000000    -0.0000000000     0.0021643836
    6      Au     -6.2070000000    -0.0000000000    -2.6238356164
    7      Au     -6.2120000000    -0.0000000000     2.6161643836
    8      Au      1.6700000000     0.0000000000     0.0021643836
    9      Au      3.8920000000     0.0000000000     1.3941643836
   10      Au      3.8920000000     0.0000000000    -1.3908356164
   11      Au      6.3030000000     0.0000000000     0.0021643836
   12      Au      6.2070000000     0.0000000000    -2.6238356164
   13      Au      6.2120000000     0.0000000000     2.6161643836
 ----------------------------------------------------------------

   25   -1626.2632149786      5.85e-09  Convergence criterion met
 Total energy in the final basis set =    -1626.2632149786
    2    2530.5001440802      8.81e-15  Convergence criterion met
   24   -1626.2237574217      8.91e-09  Convergence criterion met
   11   -1626.2516083289      1.90e-09  Convergence criterion met
   21   -1626.2518342069      4.56e-09  Convergence criterion met
    9   -1626.2518593136      7.17e-09  Convergence criterion met
   18   -1626.2518623415      1.19e-09  Convergence criterion met
    9   -1626.2518627138      3.38e-09  Convergence criterion met
   14   -1626.2518627598      9.24e-09  Convergence criterion met
    8   -1626.2518627659      5.45e-09  Convergence criterion met
   14   -1626.2518627670      1.07e-09  Convergence criterion met

 Nuclear Orbital Energies (a.u.)
 ---------------------------------------
  -- Occupied --
   -0.8085

Ground-State Mulliken Net Atomic Charges

     Atom                 Charge (a.u.)
  ----------------------------------------
      0                    -0.828276
      1                    0.596043
      2                    0.179024
      3                    0.178475
      4                    0.067291
      5                    -0.053484
      6                    -0.053211
      7                    0.596043
      8                    0.179024
      9                    0.178475
      10                    0.067291
      11                    -0.053484
      12                    -0.053211
----------------------------------------
 Sum of atomic charges =   1.000000

 Total job time:  515.09s(wall), 14920.87s(cpu)
        *  Thank you very much for using Q-Chem.  Have a nice day.  *
