 Q-Chem 5.4 (devel), Q-Chem, Inc., Pleasanton, CA (2021)
 Q-Chem 5.4.1 for Intel X86 EM64T Linux

User input:
--------------------------------------------------------------
$molecule
+1 1
H      0.000000    0.000000    3.862
Au     0.000000    0.000000    2.222000
Au    -1.392000    0.000000    0.000000
Au     1.393000    0.000000    0.000000
Au     0.000000    0.000000   -2.411000
Au     2.626000    0.000000   -2.315000
Au    -2.614000    0.000000   -2.320000
Au     0.000000    0.000000    5.502
Au    -1.392000    0.000000    7.724
Au     1.393000    0.000000    7.724
Au     0.000000    0.000000    10.135
Au     2.626000    0.000000    10.039
Au    -2.614000    0.000000    10.044
$end
$rem
jobtype = sp
sym_ignore = false
input_bohr = false
method = b3lyp
SCF_ALGORITHM = GDM
MAX_SCF_CYCLES=500
SCF_CONVERGENCE = 8
MEM_TOTAL = 100000
ECP = fit-LANL2DZ
basis = general
NEO = TRUE
NEO_EPC = epc172
NEO_PURECART = 1111
NEO_VPP = 0
NEO_N_SCF_CONVERGENCE = 8
NEO_E_CONV = 8
MAKE_CUBE_FILES = true
plots = true
$end

$basis
   H 0
   def2-qzvp
   ****
   Au 0
   LANL2DZ
   ****
$end

$neo_basis
H    1
S    1    1.000000
   5.973 1.0
S    1    1.000000
   10.645 1.0
S    1    1.000000
   17.943 1.0
S    1    1.000000
   28.950 1.0
P    1    1.000000
   7.604 1.0
P    1    1.000000
   14.701 1.0
P    1    1.000000
   23.308 1.0
D    1    1.000000
   9.011 1.0
D    1    1.000000
   19.787 1.0
F    1    1.000000
   10.914 1.0
F    1    1.000000
   20.985 1.0
****
$end

$neo_tdks
dt  0.1
maxiter 1
field_type delta
field_amp 0e-2
in_cavity false 2.01 2 1e-2 100
rt_thresh 2
moving_classical_nuclei false
moving_proton_basis_center false
save_per_iter 400
plt_params 80 -10.0 10.0
enforce_eh true
$end
--------------------------------------------------------------

             Standard Nuclear Orientation (Angstroms)
    I     Atom           X                Y                Z
 ----------------------------------------------------------------
    1      H       0.0000000000     0.0000000000     0.0021643836
    2      Au     -1.6400000000    -0.0000000000     0.0021643836
    3      Au     -3.8620000000     0.0000000000     1.3941643836
    4      Au     -3.8620000000    -0.0000000000    -1.3908356164
    5      Au     -6.2730000000    -0.0000000000     0.0021643836
    6      Au     -6.1770000000    -0.0000000000    -2.6238356164
    7      Au     -6.1820000000     0.0000000000     2.6161643836
    8      Au      1.6400000000     0.0000000000     0.0021643836
    9      Au      3.8620000000     0.0000000000     1.3941643836
   10      Au      3.8620000000    -0.0000000000    -1.3908356164
   11      Au      6.2730000000     0.0000000000     0.0021643836
   12      Au      6.1770000000    -0.0000000000    -2.6238356164
   13      Au      6.1820000000     0.0000000000     2.6161643836
 ----------------------------------------------------------------

   25   -1626.2631838615      5.71e-09  Convergence criterion met
 Total energy in the final basis set =    -1626.2631838615
    2    2536.4627263076      4.95e-15  Convergence criterion met
   24   -1626.2231929371      7.27e-09  Convergence criterion met
   11   -1626.2510657708      1.79e-09  Convergence criterion met
   20   -1626.2513073311      1.87e-09  Convergence criterion met
    9   -1626.2513353726      7.99e-09  Convergence criterion met
   21   -1626.2513388702      3.52e-09  Convergence criterion met
    9   -1626.2513393158      3.55e-09  Convergence criterion met
   16   -1626.2513393728      9.36e-09  Convergence criterion met
    8   -1626.2513393805      5.37e-09  Convergence criterion met
   14   -1626.2513393819      1.22e-09  Convergence criterion met

 Nuclear Orbital Energies (a.u.)
 ---------------------------------------
  -- Occupied --
   -0.8058

Ground-State Mulliken Net Atomic Charges

     Atom                 Charge (a.u.)
  ----------------------------------------
      0                    -0.978396
      1                    0.692940
      2                    0.170839
      3                    0.170325
      4                    0.065913
      5                    -0.055553
      6                    -0.055266
      7                    0.692940
      8                    0.170839
      9                    0.170325
      10                    0.065913
      11                    -0.055553
      12                    -0.055266
----------------------------------------
 Sum of atomic charges =   1.000000

 Total job time:  602.03s(wall), 17448.74s(cpu)
        *  Thank you very much for using Q-Chem.  Have a nice day.  *
