 Q-Chem 5.4 (devel), Q-Chem, Inc., Pleasanton, CA (2021)
 Q-Chem 5.4.1 for Intel X86 EM64T Linux

User input:
--------------------------------------------------------------
$molecule
+1 1
H      0.000000    0.000000    4.522
Au     0.000000    0.000000    2.222000
Au    -1.392000    0.000000    0.000000
Au     1.393000    0.000000    0.000000
Au     0.000000    0.000000   -2.411000
Au     2.626000    0.000000   -2.315000
Au    -2.614000    0.000000   -2.320000
Au     0.000000    0.000000    6.821999999999999
Au    -1.392000    0.000000    9.043999999999999
Au     1.393000    0.000000    9.043999999999999
Au     0.000000    0.000000    11.454999999999998
Au     2.626000    0.000000    11.358999999999998
Au    -2.614000    0.000000    11.363999999999999
$end
$rem
jobtype = sp
sym_ignore = false
input_bohr = false
method = b3lyp
SCF_ALGORITHM = GDM
MAX_SCF_CYCLES=500
SCF_CONVERGENCE = 8
MEM_TOTAL = 100000
ECP = fit-LANL2DZ
basis = general
NEO = TRUE
NEO_EPC = epc172
NEO_PURECART = 1111
NEO_VPP = 0
NEO_N_SCF_CONVERGENCE = 8
NEO_E_CONV = 8
MAKE_CUBE_FILES = true
plots = true
$end

$basis
   H 0
   def2-qzvp
   ****
   Au 0
   LANL2DZ
   ****
$end

$neo_basis
H    1
S    1    1.000000
   5.973 1.0
S    1    1.000000
   10.645 1.0
S    1    1.000000
   17.943 1.0
S    1    1.000000
   28.950 1.0
P    1    1.000000
   7.604 1.0
P    1    1.000000
   14.701 1.0
P    1    1.000000
   23.308 1.0
D    1    1.000000
   9.011 1.0
D    1    1.000000
   19.787 1.0
F    1    1.000000
   10.914 1.0
F    1    1.000000
   20.985 1.0
****
$end

$neo_tdks
dt  0.1
maxiter 1
field_type delta
field_amp 0e-2
in_cavity false 2.01 2 1e-2 100
rt_thresh 2
moving_classical_nuclei false
moving_proton_basis_center false
save_per_iter 400
plt_params 80 -10.0 10.0
enforce_eh true
$end
--------------------------------------------------------------

             Standard Nuclear Orientation (Angstroms)
    I     Atom           X                Y                Z
 ----------------------------------------------------------------
    1      H      -0.0000000000     0.0000000000     0.0021643836
    2      Au     -2.3000000000    -0.0000000000     0.0021643836
    3      Au     -4.5220000000    -0.0000000000     1.3941643836
    4      Au     -4.5220000000    -0.0000000000    -1.3908356164
    5      Au     -6.9330000000    -0.0000000000     0.0021643836
    6      Au     -6.8370000000    -0.0000000000    -2.6238356164
    7      Au     -6.8420000000    -0.0000000000     2.6161643836
    8      Au      2.3000000000     0.0000000000     0.0021643836
    9      Au      4.5220000000     0.0000000000     1.3941643836
   10      Au      4.5220000000     0.0000000000    -1.3908356164
   11      Au      6.9330000000     0.0000000000     0.0021643836
   12      Au      6.8370000000     0.0000000000    -2.6238356164
   13      Au      6.8420000000     0.0000000000     2.6161643836
 ----------------------------------------------------------------

   27   -1626.1992674311      4.35e-09  Convergence criterion met
 Total energy in the final basis set =    -1626.1992674311
    2    2425.5707167359      7.74e-15  Convergence criterion met
   24   -1626.1662482114      5.59e-10  Convergence criterion met
   11   -1626.1934524690      8.43e-09  Convergence criterion met
   21   -1626.1935234741      4.15e-09  Convergence criterion met
    9   -1626.1935251792      6.34e-09  Convergence criterion met
   18   -1626.1935252934      6.19e-09  Convergence criterion met
    8   -1626.1935253015      8.61e-09  Convergence criterion met
   16   -1626.1935253023      5.24e-09  Convergence criterion met

 Nuclear Orbital Energies (a.u.)
 ---------------------------------------
  -- Occupied --
   -0.7902

Ground-State Mulliken Net Atomic Charges

     Atom                 Charge (a.u.)
  ----------------------------------------
      0                    0.311052
      1                    -0.036510
      2                    0.157888
      3                    0.157241
      4                    0.125939
      5                    -0.030099
      6                    -0.029986
      7                    -0.036510
      8                    0.157888
      9                    0.157241
      10                    0.125939
      11                    -0.030099
      12                    -0.029986
----------------------------------------
 Sum of atomic charges =   1.000000

 Total job time:  360.36s(wall), 10336.91s(cpu)
        *  Thank you very much for using Q-Chem.  Have a nice day.  *
