 Q-Chem 5.4 (devel), Q-Chem, Inc., Pleasanton, CA (2021)
 Q-Chem 5.4.1 for Intel X86 EM64T Linux

User input:
--------------------------------------------------------------
$molecule
+1 1
H      0.000000    0.000000    3.5220000000000002
Au     0.000000    0.000000    2.222000
Au    -1.392000    0.000000    0.000000
Au     1.393000    0.000000    0.000000
Au     0.000000    0.000000   -2.411000
Au     2.626000    0.000000   -2.315000
Au    -2.614000    0.000000   -2.320000
Au     0.000000    0.000000    4.822
Au    -1.392000    0.000000    7.0440000000000005
Au     1.393000    0.000000    7.0440000000000005
Au     0.000000    0.000000    9.455
Au     2.626000    0.000000    9.359
Au    -2.614000    0.000000    9.364
$end
$rem
jobtype = sp
sym_ignore = false
input_bohr = false
method = b3lyp
SCF_ALGORITHM = GDM
MAX_SCF_CYCLES=500
SCF_CONVERGENCE = 8
MEM_TOTAL = 100000
ECP = fit-LANL2DZ
basis = general
NEO = TRUE
NEO_EPC = epc172
NEO_PURECART = 1111
NEO_VPP = 0
NEO_N_SCF_CONVERGENCE = 8
NEO_E_CONV = 8
MAKE_CUBE_FILES = true
plots = true
$end

$basis
   H 0
   def2-qzvp
   ****
   Au 0
   LANL2DZ
   ****
$end

$neo_basis
H    1
S    1    1.000000
   5.973 1.0
S    1    1.000000
   10.645 1.0
S    1    1.000000
   17.943 1.0
S    1    1.000000
   28.950 1.0
P    1    1.000000
   7.604 1.0
P    1    1.000000
   14.701 1.0
P    1    1.000000
   23.308 1.0
D    1    1.000000
   9.011 1.0
D    1    1.000000
   19.787 1.0
F    1    1.000000
   10.914 1.0
F    1    1.000000
   20.985 1.0
****
$end

$neo_tdks
dt  0.1
maxiter 1
field_type delta
field_amp 0e-2
in_cavity false 2.01 2 1e-2 100
rt_thresh 2
moving_classical_nuclei false
moving_proton_basis_center false
save_per_iter 400
plt_params 80 -10.0 10.0
enforce_eh true
$end
--------------------------------------------------------------

             Standard Nuclear Orientation (Angstroms)
    I     Atom           X                Y                Z
 ----------------------------------------------------------------
    1      H       0.0000000000    -0.0000000000     0.0021643836
    2      Au     -1.3000000000     0.0000000000     0.0021643836
    3      Au     -3.5220000000     0.0000000000     1.3941643836
    4      Au     -3.5220000000     0.0000000000    -1.3908356164
    5      Au     -5.9330000000     0.0000000000     0.0021643836
    6      Au     -5.8370000000     0.0000000000    -2.6238356164
    7      Au     -5.8420000000     0.0000000000     2.6161643836
    8      Au      1.3000000000    -0.0000000000     0.0021643836
    9      Au      3.5220000000    -0.0000000000     1.3941643836
   10      Au      3.5220000000    -0.0000000000    -1.3908356164
   11      Au      5.9330000000    -0.0000000000     0.0021643836
   12      Au      5.8370000000    -0.0000000000    -2.6238356164
   13      Au      5.8420000000    -0.0000000000     2.6161643836
 ----------------------------------------------------------------

   23   -1626.1441492459      5.45e-09  Convergence criterion met
 Total energy in the final basis set =    -1626.1441492459
    2    2612.8527713306      6.76e-15  Convergence criterion met
   22   -1626.0949856842      3.40e-09  Convergence criterion met
   11   -1626.0959876709      2.90e-09  Convergence criterion met
   20   -1626.0995305609      7.27e-09  Convergence criterion met
   12   -1626.1230574242      8.62e-09  Convergence criterion met
   20   -1626.1236959236      4.55e-09  Convergence criterion met
   12   -1626.1238191662      5.28e-09  Convergence criterion met
   20   -1626.1238464647      1.77e-09  Convergence criterion met
   12   -1626.1238523769      1.89e-09  Convergence criterion met
   18   -1626.1238536666      2.21e-09  Convergence criterion met
   11   -1626.1238539456      4.36e-09  Convergence criterion met
   16   -1626.1238540072      6.81e-10  Convergence criterion met
   10   -1626.1238540219      4.99e-09  Convergence criterion met
   12   -1626.1238540267      6.99e-09  Convergence criterion met

 Nuclear Orbital Energies (a.u.)
 ---------------------------------------
  -- Occupied --
   -0.6707

Ground-State Mulliken Net Atomic Charges

     Atom                 Charge (a.u.)
  ----------------------------------------
      0                    -1.230947
      1                    0.980152
      2                    0.110415
      3                    0.110483
      4                    0.051980
      5                    -0.069047
      6                    -0.068510
      7                    0.980152
      8                    0.110415
      9                    0.110483
      10                    0.051980
      11                    -0.069047
      12                    -0.068510
----------------------------------------
 Sum of atomic charges =   1.000000

 Total job time:  597.04s(wall), 17046.80s(cpu)
        *  Thank you very much for using Q-Chem.  Have a nice day.  *
