 Q-Chem 5.4 (devel), Q-Chem, Inc., Pleasanton, CA (2021)
 Q-Chem 5.4.1 for Intel X86 EM64T Linux

User input:
--------------------------------------------------------------
$molecule
+1 1
H      0.000000    0.000000    3.822
Au     0.000000    0.000000    2.222000
Au    -1.392000    0.000000    0.000000
Au     1.393000    0.000000    0.000000
Au     0.000000    0.000000   -2.411000
Au     2.626000    0.000000   -2.315000
Au    -2.614000    0.000000   -2.320000
Au     0.000000    0.000000    5.422000000000001
Au    -1.392000    0.000000    7.644
Au     1.393000    0.000000    7.644
Au     0.000000    0.000000    10.055
Au     2.626000    0.000000    9.959
Au    -2.614000    0.000000    9.964
$end
$rem
jobtype = sp
sym_ignore = false
input_bohr = false
method = b3lyp
SCF_ALGORITHM = GDM
MAX_SCF_CYCLES=500
SCF_CONVERGENCE = 8
MEM_TOTAL = 100000
ECP = fit-LANL2DZ
basis = general
IANLTY     200
ESP_GRID     -1
$end

$basis
   H 0
   def2-qzvp
   ****
   Au 0
   LANL2DZ
   ****
$end

$plots
   plot the electrostatic potential on a line
   14001   -7.0   7.0
   1   0.0   0.0
   1   0.0   0.0
   0  0  0  0
   0
$end
--------------------------------------------------------------

             Standard Nuclear Orientation (Angstroms)
    I     Atom           X                Y                Z
 ----------------------------------------------------------------
    1      H      -0.0000000000     0.0000000000     0.0021643836
    2      Au     -1.6000000000    -0.0000000000     0.0021643836
    3      Au     -3.8220000000    -0.0000000000     1.3941643836
    4      Au     -3.8220000000    -0.0000000000    -1.3908356164
    5      Au     -6.2330000000    -0.0000000000     0.0021643836
    6      Au     -6.1370000000    -0.0000000000    -2.6238356164
    7      Au     -6.1420000000    -0.0000000000     2.6161643836
    8      Au      1.6000000000     0.0000000000     0.0021643836
    9      Au      3.8220000000     0.0000000000     1.3941643836
   10      Au      3.8220000000     0.0000000000    -1.3908356164
   11      Au      6.2330000000     0.0000000000     0.0021643836
   12      Au      6.1370000000     0.0000000000    -2.6238356164
   13      Au      6.1420000000     0.0000000000     2.6161643836
 ----------------------------------------------------------------

   25   -1626.2617573701      6.48e-09  Convergence criterion met
 Total energy in the final basis set =    -1626.2617573701

             Orbital Energies (a.u.) and Symmetries
 --------------------------------------------------------------

 Alpha MOs, Restricted
 -- Occupied --
 -4.315  -4.315  -4.295  -4.295  -4.295  -4.295  -4.294  -4.294
  1 B1    1 A1    2 B1    2 A1    3 A1    3 B1    4 B1    4 A1
 -4.278  -4.278  -4.277  -4.277  -2.462  -2.461  -2.444  -2.444
  5 B1    5 A1    6 A1    6 B1    7 A1    7 B1    8 A1    8 B1
 -2.437  -2.437  -2.436  -2.436  -2.434  -2.434  -2.434  -2.434
  9 A1    9 B1   10 A1   10 B1    1 B2    1 A2   11 A1   11 B1
 -2.431  -2.431  -2.427  -2.426  -2.425  -2.425  -2.419  -2.419
 12 B1   12 A1   13 B1   13 A1   14 B1   14 A1    2 A2    2 B2
 -2.419  -2.419  -2.419  -2.419  -2.417  -2.417  -2.415  -2.415
  3 B2    3 A2    4 A2    4 B2   15 B1   15 A1   16 A1   16 B1
 -2.411  -2.411  -2.410  -2.410  -2.403  -2.403  -2.402  -2.402
 17 B1   17 A1   18 B1   18 A1    5 B2    5 A2    6 B2    6 A2
 -0.643  -0.548  -0.537  -0.536  -0.534  -0.532  -0.508  -0.506
 19 A1   19 B1   20 A1   21 A1   20 B1   21 B1   22 A1   22 B1
 -0.506  -0.497  -0.495  -0.493  -0.490  -0.488  -0.488  -0.480
 23 A1   24 A1    7 B2   23 B1   24 B1    7 A2   25 A1    8 B2
 -0.480  -0.467  -0.467  -0.461  -0.458  -0.457  -0.456  -0.448
  8 A2    9 B2    9 A2   26 A1   10 B2   10 A2   25 B1   11 B2
 -0.447  -0.445  -0.442  -0.439  -0.437  -0.436  -0.434  -0.433
 27 A1   26 B1   27 B1   11 A2   12 B2   12 A2   28 A1   28 B1
 -0.428  -0.428  -0.427  -0.427  -0.426  -0.424  -0.424  -0.423
 29 A1   29 B1   13 B2   13 A2   30 A1   31 A1   30 B1   31 B1
 -0.418  -0.418  -0.415  -0.415  -0.414  -0.412  -0.409  -0.408
 14 B2   14 A2   15 B2   15 A2   32 A1   32 B1   33 A1   34 A1
 -0.408  -0.407  -0.406  -0.403  -0.402  -0.400  -0.400  -0.400
 33 B1   34 B1   16 B2   16 A2   35 A1   36 A1   17 B2   35 B1
 -0.400  -0.396  -0.396  -0.390  -0.390  -0.388  -0.387  -0.362
 17 A2   18 A2   18 B2   37 A1   36 B1   37 B1   38 A1   39 A1
 -0.361  -0.355
 38 B1   39 B1

 Beta MOs, Restricted
 -- Occupied --
 -4.315  -4.315  -4.295  -4.295  -4.295  -4.295  -4.294  -4.294
  1 B1    1 A1    2 B1    2 A1    3 A1    3 B1    4 B1    4 A1
 -4.278  -4.278  -4.277  -4.277  -2.462  -2.461  -2.444  -2.444
  5 B1    5 A1    6 A1    6 B1    7 A1    7 B1    8 A1    8 B1
 -2.437  -2.437  -2.436  -2.436  -2.434  -2.434  -2.434  -2.434
  9 A1    9 B1   10 A1   10 B1    1 B2    1 A2   11 A1   11 B1
 -2.431  -2.431  -2.427  -2.426  -2.425  -2.425  -2.419  -2.419
 12 B1   12 A1   13 B1   13 A1   14 B1   14 A1    2 A2    2 B2
 -2.419  -2.419  -2.419  -2.419  -2.417  -2.417  -2.415  -2.415
  3 B2    3 A2    4 A2    4 B2   15 B1   15 A1   16 A1   16 B1
 -2.411  -2.411  -2.410  -2.410  -2.403  -2.403  -2.402  -2.402
 17 B1   17 A1   18 B1   18 A1    5 B2    5 A2    6 B2    6 A2
 -0.643  -0.548  -0.537  -0.536  -0.534  -0.532  -0.508  -0.506
 19 A1   19 B1   20 A1   21 A1   20 B1   21 B1   22 A1   22 B1
 -0.506  -0.497  -0.495  -0.493  -0.490  -0.488  -0.488  -0.480
 23 A1   24 A1    7 B2   23 B1   24 B1    7 A2   25 A1    8 B2
 -0.480  -0.467  -0.467  -0.461  -0.458  -0.457  -0.456  -0.448
  8 A2    9 B2    9 A2   26 A1   10 B2   10 A2   25 B1   11 B2
 -0.447  -0.445  -0.442  -0.439  -0.437  -0.436  -0.434  -0.433
 27 A1   26 B1   27 B1   11 A2   12 B2   12 A2   28 A1   28 B1
 -0.428  -0.428  -0.427  -0.427  -0.426  -0.424  -0.424  -0.423
 29 A1   29 B1   13 B2   13 A2   30 A1   31 A1   30 B1   31 B1
 -0.418  -0.418  -0.415  -0.415  -0.414  -0.412  -0.409  -0.408
 14 B2   14 A2   15 B2   15 A2   32 A1   32 B1   33 A1   34 A1
 -0.408  -0.407  -0.406  -0.403  -0.402  -0.400  -0.400  -0.400
 33 B1   34 B1   16 B2   16 A2   35 A1   36 A1   17 B2   35 B1
 -0.400  -0.396  -0.396  -0.390  -0.390  -0.388  -0.387  -0.362
 17 A2   18 A2   18 B2   37 A1   36 B1   37 B1   38 A1   39 A1
 -0.361  -0.355
 38 B1   39 B1

          Ground-State Mulliken Net Atomic Charges

     Atom                 Charge (a.u.)
  ----------------------------------------
      1 H                    -1.136207
      2 Au                    0.796393
      3 Au                    0.162142
      4 Au                    0.161678
      5 Au                    0.064012
      6 Au                   -0.058216
      7 Au                   -0.057905
      8 Au                    0.796393
      9 Au                    0.162142
     10 Au                    0.161678
     11 Au                    0.064012
     12 Au                   -0.058216
     13 Au                   -0.057905
  ----------------------------------------
  Sum of atomic charges =     1.000000

                    Cartesian Multipole Moments
 -----------------------------------------------------------------
    Charge (ESU x 10^10)
                 4.8032
    Dipole Moment (Debye)
         X      -0.0000000028      Y       0.0000000000      Z       0.0273331050
       Tot       0.0273331050
    Quadrupole Moments (Debye-Ang)
        XX    -106.0491     XY       0.0000     YY    -278.3032
        XZ       0.0000     YZ      -0.0000     ZZ    -232.2573

 Total job time:  15.74s(wall), 262.76s(cpu)
        *  Thank you very much for using Q-Chem.  Have a nice day.  *
