 Q-Chem 5.4 (devel), Q-Chem, Inc., Pleasanton, CA (2021)
 Q-Chem 5.4.1 for Intel X86 EM64T Linux

User input:
--------------------------------------------------------------
$molecule
+1 1
H      0.000000    0.000000    3.722
Au     0.000000    0.000000    2.222000
Au    -1.392000    0.000000    0.000000
Au     1.393000    0.000000    0.000000
Au     0.000000    0.000000   -2.411000
Au     2.626000    0.000000   -2.315000
Au    -2.614000    0.000000   -2.320000
Au     0.000000    0.000000    5.2219999999999995
Au    -1.392000    0.000000    7.443999999999999
Au     1.393000    0.000000    7.443999999999999
Au     0.000000    0.000000    9.855
Au     2.626000    0.000000    9.759
Au    -2.614000    0.000000    9.764
$end
$rem
jobtype = sp
sym_ignore = false
input_bohr = false
method = b3lyp
SCF_ALGORITHM = GDM
MAX_SCF_CYCLES=500
SCF_CONVERGENCE = 8
MEM_TOTAL = 100000
ECP = fit-LANL2DZ
basis = general
NEO = TRUE
NEO_EPC = epc172
NEO_PURECART = 1111
NEO_VPP = 0
NEO_N_SCF_CONVERGENCE = 8
NEO_E_CONV = 8
MAKE_CUBE_FILES = true
plots = true
$end

$basis
   H 0
   def2-qzvp
   ****
   Au 0
   LANL2DZ
   ****
$end

$neo_basis
H    1
S    1    1.000000
   5.973 1.0
S    1    1.000000
   10.645 1.0
S    1    1.000000
   17.943 1.0
S    1    1.000000
   28.950 1.0
P    1    1.000000
   7.604 1.0
P    1    1.000000
   14.701 1.0
P    1    1.000000
   23.308 1.0
D    1    1.000000
   9.011 1.0
D    1    1.000000
   19.787 1.0
F    1    1.000000
   10.914 1.0
F    1    1.000000
   20.985 1.0
****
$end

$neo_tdks
dt  0.1
maxiter 1
field_type delta
field_amp 0e-2
in_cavity false 2.01 2 1e-2 100
rt_thresh 2
moving_classical_nuclei false
moving_proton_basis_center false
save_per_iter 400
plt_params 80 -10.0 10.0
enforce_eh true
$end
--------------------------------------------------------------

             Standard Nuclear Orientation (Angstroms)
    I     Atom           X                Y                Z
 ----------------------------------------------------------------
    1      H       0.0000000000     0.0000000000     0.0021643836
    2      Au     -1.5000000000    -0.0000000000     0.0021643836
    3      Au     -3.7220000000    -0.0000000000     1.3941643836
    4      Au     -3.7220000000    -0.0000000000    -1.3908356164
    5      Au     -6.1330000000    -0.0000000000     0.0021643836
    6      Au     -6.0370000000    -0.0000000000    -2.6238356164
    7      Au     -6.0420000000    -0.0000000000     2.6161643836
    8      Au      1.5000000000     0.0000000000     0.0021643836
    9      Au      3.7220000000     0.0000000000     1.3941643836
   10      Au      3.7220000000     0.0000000000    -1.3908356164
   11      Au      6.1330000000     0.0000000000     0.0021643836
   12      Au      6.0370000000     0.0000000000    -2.6238356164
   13      Au      6.0420000000     0.0000000000     2.6161643836
 ----------------------------------------------------------------

   24   -1626.2483917826      7.99e-09  Convergence criterion met
 Total energy in the final basis set =    -1626.2483917826
    2    2565.8129247349      2.41e-15  Convergence criterion met
   22   -1626.2054418478      9.75e-09  Convergence criterion met
   12   -1626.2333943202      7.07e-09  Convergence criterion met
   20   -1626.2337251599      2.37e-09  Convergence criterion met
   10   -1626.2337716968      4.32e-09  Convergence criterion met
   20   -1626.2337785423      2.96e-09  Convergence criterion met
    9   -1626.2337795841      9.97e-09  Convergence criterion met
   16   -1626.2337797429      8.74e-09  Convergence criterion met
    9   -1626.2337797678      4.91e-09  Convergence criterion met
   14   -1626.2337797721      2.46e-09  Convergence criterion met

 Nuclear Orbital Energies (a.u.)
 ---------------------------------------
  -- Occupied --
   -0.7794

Ground-State Mulliken Net Atomic Charges

     Atom                 Charge (a.u.)
  ----------------------------------------
      0                    -1.279245
      1                    0.931785
      2                    0.137587
      3                    0.137253
      4                    0.059871
      5                    -0.063626
      6                    -0.063248
      7                    0.931785
      8                    0.137587
      9                    0.137253
      10                    0.059871
      11                    -0.063626
      12                    -0.063248
----------------------------------------
 Sum of atomic charges =   1.000000

 Total job time:  556.49s(wall), 16089.23s(cpu)
        *  Thank you very much for using Q-Chem.  Have a nice day.  *
