 Q-Chem 5.4 (devel), Q-Chem, Inc., Pleasanton, CA (2021)
 Q-Chem 5.4.1 for Intel X86 EM64T Linux

User input:
--------------------------------------------------------------
$molecule
+1 1
H      0.000000    0.000000    4.322
Au     0.000000    0.000000    2.222000
Au    -1.392000    0.000000    0.000000
Au     1.393000    0.000000    0.000000
Au     0.000000    0.000000   -2.411000
Au     2.626000    0.000000   -2.315000
Au    -2.614000    0.000000   -2.320000
Au     0.000000    0.000000    6.422000000000001
Au    -1.392000    0.000000    8.644
Au     1.393000    0.000000    8.644
Au     0.000000    0.000000    11.055
Au     2.626000    0.000000    10.959
Au    -2.614000    0.000000    10.964
$end
$rem
jobtype = sp
sym_ignore = false
input_bohr = false
method = b3lyp
SCF_ALGORITHM = GDM
MAX_SCF_CYCLES=500
SCF_CONVERGENCE = 8
MEM_TOTAL = 100000
ECP = fit-LANL2DZ
basis = general
IANLTY     200
ESP_GRID     -1
$end

$basis
   H 0
   def2-qzvp
   ****
   Au 0
   LANL2DZ
   ****
$end

$plots
   plot the electrostatic potential on a line
   14001   -7.0   7.0
   1   0.0   0.0
   1   0.0   0.0
   0  0  0  0
   0
$end
--------------------------------------------------------------

             Standard Nuclear Orientation (Angstroms)
    I     Atom           X                Y                Z
 ----------------------------------------------------------------
    1      H       0.0000000000     0.0000000000     0.0021643836
    2      Au     -2.1000000000    -0.0000000000     0.0021643836
    3      Au     -4.3220000000    -0.0000000000     1.3941643836
    4      Au     -4.3220000000    -0.0000000000    -1.3908356164
    5      Au     -6.7330000000    -0.0000000000     0.0021643836
    6      Au     -6.6370000000    -0.0000000000    -2.6238356164
    7      Au     -6.6420000000    -0.0000000000     2.6161643836
    8      Au      2.1000000000     0.0000000000     0.0021643836
    9      Au      4.3220000000     0.0000000000     1.3941643836
   10      Au      4.3220000000     0.0000000000    -1.3908356164
   11      Au      6.7330000000     0.0000000000     0.0021643836
   12      Au      6.6370000000     0.0000000000    -2.6238356164
   13      Au      6.6420000000     0.0000000000     2.6161643836
 ----------------------------------------------------------------

   25   -1626.2227068797      4.95e-09  Convergence criterion met
 Total energy in the final basis set =    -1626.2227068797

             Orbital Energies (a.u.) and Symmetries
 --------------------------------------------------------------

 Alpha MOs, Restricted
 -- Occupied --
 -4.297  -4.297  -4.295  -4.295  -4.293  -4.293  -4.292  -4.292
  1 B1    1 A1    2 A1    2 B1    3 A1    3 B1    4 B1    4 A1
 -4.277  -4.277  -4.276  -4.276  -2.440  -2.440  -2.438  -2.438
  5 B1    5 A1    6 B1    6 A1    7 A1    7 B1    8 A1    8 B1
 -2.434  -2.434  -2.432  -2.432  -2.430  -2.430  -2.426  -2.426
  9 B1    9 A1   10 B1   10 A1   11 A1   11 B1   12 B1   12 A1
 -2.425  -2.425  -2.423  -2.423  -2.420  -2.420  -2.417  -2.417
 13 B1   13 A1   14 B1   14 A1    1 B2    1 A2    2 B2    2 A2
 -2.416  -2.416  -2.416  -2.416  -2.416  -2.416  -2.415  -2.415
  3 B2    3 A2    4 B2    4 A2   15 B1   15 A1   16 A1   16 B1
 -2.410  -2.410  -2.409  -2.409  -2.402  -2.402  -2.402  -2.402
 17 B1   17 A1   18 B1   18 A1    5 B2    5 A2    6 B2    6 A2
 -0.554  -0.544  -0.532  -0.530  -0.530  -0.530  -0.505  -0.505
 19 A1   19 B1   20 A1   21 A1   20 B1   21 B1   22 B1   22 A1
 -0.489  -0.489  -0.488  -0.487  -0.482  -0.481  -0.479  -0.479
 23 A1   23 B1   24 A1   24 B1    7 B2    7 A2    8 B2    8 A2
 -0.472  -0.466  -0.466  -0.452  -0.452  -0.452  -0.451  -0.436
 25 A1    9 B2    9 A2   10 B2   10 A2   26 A1   25 B1   27 A1
 -0.436  -0.434  -0.434  -0.432  -0.431  -0.431  -0.430  -0.430
 26 B1   27 B1   11 B2   11 A2   28 A1   28 B1   12 B2   12 A2
 -0.427  -0.427  -0.427  -0.426  -0.422  -0.422  -0.422  -0.421
 29 A1   13 B2   13 A2   29 B1   30 A1   30 B1   31 A1   31 B1
 -0.415  -0.415  -0.415  -0.415  -0.411  -0.410  -0.406  -0.406
 14 B2   14 A2   15 B2   15 A2   32 A1   32 B1   33 B1   33 A1
 -0.404  -0.403  -0.400  -0.399  -0.399  -0.398  -0.397  -0.397
 34 A1   34 B1   16 B2   16 A2   35 A1   35 B1   17 B2   17 A2
 -0.396  -0.396  -0.394  -0.388  -0.386  -0.386  -0.386  -0.360
 18 A2   18 B2   36 A1   36 B1   37 A1   37 B1   38 A1   39 A1
 -0.360  -0.355
 38 B1   39 B1

 Beta MOs, Restricted
 -- Occupied --
 -4.297  -4.297  -4.295  -4.295  -4.293  -4.293  -4.292  -4.292
  1 B1    1 A1    2 A1    2 B1    3 A1    3 B1    4 B1    4 A1
 -4.277  -4.277  -4.276  -4.276  -2.440  -2.440  -2.438  -2.438
  5 B1    5 A1    6 B1    6 A1    7 A1    7 B1    8 A1    8 B1
 -2.434  -2.434  -2.432  -2.432  -2.430  -2.430  -2.426  -2.426
  9 B1    9 A1   10 B1   10 A1   11 A1   11 B1   12 B1   12 A1
 -2.425  -2.425  -2.423  -2.423  -2.420  -2.420  -2.417  -2.417
 13 B1   13 A1   14 B1   14 A1    1 B2    1 A2    2 B2    2 A2
 -2.416  -2.416  -2.416  -2.416  -2.416  -2.416  -2.415  -2.415
  3 B2    3 A2    4 B2    4 A2   15 B1   15 A1   16 A1   16 B1
 -2.410  -2.410  -2.409  -2.409  -2.402  -2.402  -2.402  -2.402
 17 B1   17 A1   18 B1   18 A1    5 B2    5 A2    6 B2    6 A2
 -0.554  -0.544  -0.532  -0.530  -0.530  -0.530  -0.505  -0.505
 19 A1   19 B1   20 A1   21 A1   20 B1   21 B1   22 B1   22 A1
 -0.489  -0.489  -0.488  -0.487  -0.482  -0.481  -0.479  -0.479
 23 A1   23 B1   24 A1   24 B1    7 B2    7 A2    8 B2    8 A2
 -0.472  -0.466  -0.466  -0.452  -0.452  -0.452  -0.451  -0.436
 25 A1    9 B2    9 A2   10 B2   10 A2   26 A1   25 B1   27 A1
 -0.436  -0.434  -0.434  -0.432  -0.431  -0.431  -0.430  -0.430
 26 B1   27 B1   11 B2   11 A2   28 A1   28 B1   12 B2   12 A2
 -0.427  -0.427  -0.427  -0.426  -0.422  -0.422  -0.422  -0.421
 29 A1   13 B2   13 A2   29 B1   30 A1   30 B1   31 A1   31 B1
 -0.415  -0.415  -0.415  -0.415  -0.411  -0.410  -0.406  -0.406
 14 B2   14 A2   15 B2   15 A2   32 A1   32 B1   33 B1   33 A1
 -0.404  -0.403  -0.400  -0.399  -0.399  -0.398  -0.397  -0.397
 34 A1   34 B1   16 B2   16 A2   35 A1   35 B1   17 B2   17 A2
 -0.396  -0.396  -0.394  -0.388  -0.386  -0.386  -0.386  -0.360
 18 A2   18 B2   36 A1   36 B1   37 A1   37 B1   38 A1   39 A1
 -0.360  -0.355
 38 B1   39 B1

          Ground-State Mulliken Net Atomic Charges

     Atom                 Charge (a.u.)
  ----------------------------------------
      1 H                     0.412287
      2 Au                   -0.094820
      3 Au                    0.175756
      4 Au                    0.175116
      5 Au                    0.106104
      6 Au                   -0.034221
      7 Au                   -0.034079
      8 Au                   -0.094820
      9 Au                    0.175756
     10 Au                    0.175116
     11 Au                    0.106104
     12 Au                   -0.034221
     13 Au                   -0.034079
  ----------------------------------------
  Sum of atomic charges =     1.000000

                    Cartesian Multipole Moments
 -----------------------------------------------------------------
    Charge (ESU x 10^10)
                 4.8032
    Dipole Moment (Debye)
         X      -0.0000001275      Y      -0.0000000000      Z       0.0255648890
       Tot       0.0255648890
    Quadrupole Moments (Debye-Ang)
        XX     -74.2645     XY       0.0000     YY    -278.9523
        XZ       0.0000     YZ      -0.0000     ZZ    -232.2478

 Total job time:  15.24s(wall), 267.98s(cpu)
        *  Thank you very much for using Q-Chem.  Have a nice day.  *
