 Q-Chem 5.4 (devel), Q-Chem, Inc., Pleasanton, CA (2021)
 Q-Chem 5.4.1 for Intel X86 EM64T Linux

User input:
--------------------------------------------------------------
$molecule
+1 1
H      0.000000    0.000000    4.622
Au     0.000000    0.000000    2.222000
Au    -1.392000    0.000000    0.000000
Au     1.393000    0.000000    0.000000
Au     0.000000    0.000000   -2.411000
Au     2.626000    0.000000   -2.315000
Au    -2.614000    0.000000   -2.320000
Au     0.000000    0.000000    7.022
Au    -1.392000    0.000000    9.244
Au     1.393000    0.000000    9.244
Au     0.000000    0.000000    11.655000000000001
Au     2.626000    0.000000    11.559000000000001
Au    -2.614000    0.000000    11.564
$end
$rem
jobtype = sp
sym_ignore = false
input_bohr = false
method = b3lyp
SCF_ALGORITHM = GDM
MAX_SCF_CYCLES=500
SCF_CONVERGENCE = 8
MEM_TOTAL = 100000
ECP = fit-LANL2DZ
basis = general
IANLTY     200
ESP_GRID     -1
$end

$basis
   H 0
   def2-qzvp
   ****
   Au 0
   LANL2DZ
   ****
$end

$plots
   plot the electrostatic potential on a line
   14001   -7.0   7.0
   1   0.0   0.0
   1   0.0   0.0
   0  0  0  0
   0
$end
--------------------------------------------------------------

             Standard Nuclear Orientation (Angstroms)
    I     Atom           X                Y                Z
 ----------------------------------------------------------------
    1      H      -0.0000000000     0.0000000000     0.0021643836
    2      Au     -2.4000000000    -0.0000000000     0.0021643836
    3      Au     -4.6220000000    -0.0000000000     1.3941643836
    4      Au     -4.6220000000    -0.0000000000    -1.3908356164
    5      Au     -7.0330000000    -0.0000000000     0.0021643836
    6      Au     -6.9370000000    -0.0000000000    -2.6238356164
    7      Au     -6.9420000000    -0.0000000000     2.6161643836
    8      Au      2.4000000000     0.0000000000     0.0021643836
    9      Au      4.6220000000     0.0000000000     1.3941643836
   10      Au      4.6220000000     0.0000000000    -1.3908356164
   11      Au      7.0330000000     0.0000000000     0.0021643836
   12      Au      6.9370000000     0.0000000000    -2.6238356164
   13      Au      6.9420000000     0.0000000000     2.6161643836
 ----------------------------------------------------------------

   27   -1626.1879580048      6.74e-09  Convergence criterion met
 Total energy in the final basis set =    -1626.1879580048

             Orbital Energies (a.u.) and Symmetries
 --------------------------------------------------------------

 Alpha MOs, Restricted
 -- Occupied --
 -4.296  -4.296  -4.291  -4.291  -4.291  -4.291  -4.289  -4.289
  1 B1    1 A1    2 A1    2 B1    3 B1    3 A1    4 A1    4 B1
 -4.276  -4.276  -4.275  -4.275  -2.437  -2.437  -2.436  -2.436
  5 B1    5 A1    6 B1    6 A1    7 B1    7 A1    8 B1    8 A1
 -2.432  -2.432  -2.431  -2.431  -2.426  -2.426  -2.424  -2.424
  9 A1    9 B1   10 B1   10 A1   11 B1   11 A1   12 B1   12 A1
 -2.422  -2.422  -2.420  -2.420  -2.419  -2.419  -2.415  -2.415
 13 B1   13 A1   14 B1   14 A1    1 B2    1 A2    2 A2    2 B2
 -2.415  -2.415  -2.415  -2.415  -2.413  -2.413  -2.411  -2.411
  3 A2    3 B2   15 B1   15 A1   16 A1   16 B1    4 B2    4 A2
 -2.409  -2.409  -2.408  -2.408  -2.401  -2.401  -2.401  -2.401
 17 B1   17 A1   18 A1   18 B1    5 B2    5 A2    6 B2    6 A2
 -0.544  -0.542  -0.529  -0.528  -0.528  -0.528  -0.504  -0.504
 19 A1   19 B1   20 A1   20 B1   21 A1   21 B1   22 B1   22 A1
 -0.487  -0.487  -0.486  -0.486  -0.479  -0.479  -0.477  -0.477
 23 A1   23 B1   24 A1   24 B1    7 B2    7 A2    8 B2    8 A2
 -0.464  -0.464  -0.450  -0.450  -0.450  -0.449  -0.449  -0.434
  9 B2    9 A2   10 B2   10 A2   25 A1   26 A1   25 B1   26 B1
 -0.434  -0.431  -0.430  -0.429  -0.429  -0.429  -0.427  -0.427
 27 A1   27 B1   11 B2   11 A2   28 A1   28 B1   12 B2   12 A2
 -0.426  -0.426  -0.426  -0.425  -0.421  -0.421  -0.420  -0.420
 29 A1   13 B2   13 A2   29 B1   30 B1   30 A1   31 A1   31 B1
 -0.414  -0.414  -0.413  -0.413  -0.409  -0.408  -0.405  -0.405
 14 B2   14 A2   15 B2   15 A2   32 A1   32 B1   33 B1   33 A1
 -0.401  -0.401  -0.397  -0.397  -0.397  -0.397  -0.395  -0.395
 34 A1   34 B1   16 B2   35 A1   35 B1   16 A2   17 B2   17 A2
 -0.395  -0.395  -0.391  -0.386  -0.384  -0.384  -0.383  -0.359
 18 B2   18 A2   36 A1   36 B1   37 A1   37 B1   38 A1   38 B1
 -0.359  -0.354
 39 A1   39 B1

 Beta MOs, Restricted
 -- Occupied --
 -4.296  -4.296  -4.291  -4.291  -4.291  -4.291  -4.289  -4.289
  1 B1    1 A1    2 A1    2 B1    3 B1    3 A1    4 A1    4 B1
 -4.276  -4.276  -4.275  -4.275  -2.437  -2.437  -2.436  -2.436
  5 B1    5 A1    6 B1    6 A1    7 B1    7 A1    8 B1    8 A1
 -2.432  -2.432  -2.431  -2.431  -2.426  -2.426  -2.424  -2.424
  9 A1    9 B1   10 B1   10 A1   11 B1   11 A1   12 B1   12 A1
 -2.422  -2.422  -2.420  -2.420  -2.419  -2.419  -2.415  -2.415
 13 B1   13 A1   14 B1   14 A1    1 B2    1 A2    2 A2    2 B2
 -2.415  -2.415  -2.415  -2.415  -2.413  -2.413  -2.411  -2.411
  3 A2    3 B2   15 B1   15 A1   16 A1   16 B1    4 B2    4 A2
 -2.409  -2.409  -2.408  -2.408  -2.401  -2.401  -2.401  -2.401
 17 B1   17 A1   18 A1   18 B1    5 B2    5 A2    6 B2    6 A2
 -0.544  -0.542  -0.529  -0.528  -0.528  -0.528  -0.504  -0.504
 19 A1   19 B1   20 A1   20 B1   21 A1   21 B1   22 B1   22 A1
 -0.487  -0.487  -0.486  -0.486  -0.479  -0.479  -0.477  -0.477
 23 A1   23 B1   24 A1   24 B1    7 B2    7 A2    8 B2    8 A2
 -0.464  -0.464  -0.450  -0.450  -0.450  -0.449  -0.449  -0.434
  9 B2    9 A2   10 B2   10 A2   25 A1   26 A1   25 B1   26 B1
 -0.434  -0.431  -0.430  -0.429  -0.429  -0.429  -0.427  -0.427
 27 A1   27 B1   11 B2   11 A2   28 A1   28 B1   12 B2   12 A2
 -0.426  -0.426  -0.426  -0.425  -0.421  -0.421  -0.420  -0.420
 29 A1   13 B2   13 A2   29 B1   30 B1   30 A1   31 A1   31 B1
 -0.414  -0.414  -0.413  -0.413  -0.409  -0.408  -0.405  -0.405
 14 B2   14 A2   15 B2   15 A2   32 A1   32 B1   33 B1   33 A1
 -0.401  -0.401  -0.397  -0.397  -0.397  -0.397  -0.395  -0.395
 34 A1   34 B1   16 B2   35 A1   35 B1   16 A2   17 B2   17 A2
 -0.395  -0.395  -0.391  -0.386  -0.384  -0.384  -0.383  -0.359
 18 B2   18 A2   36 A1   36 B1   37 A1   37 B1   38 A1   38 B1
 -0.359  -0.354
 39 A1   39 B1

          Ground-State Mulliken Net Atomic Charges

     Atom                 Charge (a.u.)
  ----------------------------------------
      1 H                     0.228502
      2 Au                   -0.000138
      3 Au                    0.153158
      4 Au                    0.152561
      5 Au                    0.135946
      6 Au                   -0.027940
      7 Au                   -0.027839
      8 Au                   -0.000138
      9 Au                    0.153158
     10 Au                    0.152561
     11 Au                    0.135946
     12 Au                   -0.027940
     13 Au                   -0.027839
  ----------------------------------------
  Sum of atomic charges =     1.000000

                    Cartesian Multipole Moments
 -----------------------------------------------------------------
    Charge (ESU x 10^10)
                 4.8032
    Dipole Moment (Debye)
         X       0.0000000253      Y      -0.0000000000      Z       0.0249047494
       Tot       0.0249047494
    Quadrupole Moments (Debye-Ang)
        XX     -57.5944     XY       0.0000     YY    -279.1577
        XZ      -0.0000     YZ       0.0000     ZZ    -232.6500

 Total job time:  15.27s(wall), 271.57s(cpu)
        *  Thank you very much for using Q-Chem.  Have a nice day.  *
