 Q-Chem 5.3 (devel), Q-Chem, Inc., Pleasanton, CA (2020)
 Q-Chem 5.3.2 for Intel X86 EM64T Linux

User input:
--------------------------------------------------------------
$molecule
0 1
C 0.0 0.0 0.0
N 1.15824 0.0 0.0
H -1.0702  0.0 0.0
$end

$rem
input_bohr = false
method = b3lyp
xc_grid = 000099000302
neo = true
neo_epc = epc172
basis = cc-pvdz
RPA = true
SET_ROOTS = 150
SCF_ALGORITHM = GDM
thresh = 14
s2thresh = 12
SCF_CONVERGENCE = 11
NEO_N_SCF_CONVERGENCE = 11
MAX_SCF_CYCLES = 400
NEO_VPP = 0
MEM_TOTAL = 7000
NEO_BASIS_LIN_DEP_THRESH = 8
SET_SUBSPACE = 65
NEO_PURECART = 1111
NEO_E_CONV = 10
$end

$neo_basis
H    3
S    1    1.000000
   2.828400 1.0
S    1    1.000000
   4.0 1.0
S    1    1.000000
   5.6569 1.0
S    1    1.000000
   8.0 1.0
S    1    1.000000
   11.3137 1.0
S    1    1.000000
   16.0 1.0
S    1    1.000000
   22.6274 1.0
S    1    1.000000
   32.0 1.0
P    1    1.000000
   2.828400 1.0
P    1    1.000000
   4.0 1.0
P    1    1.000000
   5.6569 1.0
P    1    1.000000
   8.0 1.0
P    1    1.000000
   11.3137 1.0
P    1    1.000000
   16.0 1.0
P    1    1.000000
   22.6274 1.0
P    1    1.000000
   32.0 1.0
D    1    1.000000
   2.828400 1.0
D    1    1.000000
   4.0 1.0
D    1    1.000000
   5.6569 1.0
D    1    1.000000
   8.0 1.0
D    1    1.000000
   11.3137 1.0
D    1    1.000000
   16.0 1.0
D    1    1.000000
   22.6274 1.0
D    1    1.000000
   32.0 1.0
****
$end

--------------------------------------------------------------

             Standard Nuclear Orientation (Angstroms)
    I     Atom           X                Y                Z
 ----------------------------------------------------------------
    1      C       0.0000000000     0.0000000000    -0.5026771429
    2      N       0.0000000000     0.0000000000     0.6555628571
    3      H       0.0000000000     0.0000000000    -1.5728771429
 ----------------------------------------------------------------

   17     -93.4301420833      3.43e-12  Convergence criterion met
 Total energy in the final basis set =      -93.4301420833
   20      18.2364307342      3.99e-12  Convergence criterion met
   17     -93.4188999991      7.71e-13  Convergence criterion met
   16     -93.4190988906      5.88e-12  Convergence criterion met
   15     -93.4191518050      2.39e-12  Convergence criterion met
   18     -93.4191742436      8.37e-12  Convergence criterion met
   15     -93.4191848259      7.64e-12  Convergence criterion met
   15     -93.4191899379      6.40e-12  Convergence criterion met
   14     -93.4191924214      7.70e-12  Convergence criterion met
   16     -93.4191936317      9.75e-12  Convergence criterion met
   14     -93.4191942225      3.80e-12  Convergence criterion met
   14     -93.4191945114      8.79e-12  Convergence criterion met
   14     -93.4191946527      1.85e-12  Convergence criterion met
   14     -93.4191947219      8.43e-12  Convergence criterion met
   13     -93.4191947558      5.66e-12  Convergence criterion met
   14     -93.4191947724      8.16e-12  Convergence criterion met
   13     -93.4191947805      2.77e-12  Convergence criterion met
   13     -93.4191947845      5.57e-12  Convergence criterion met
   12     -93.4191947865      1.67e-12  Convergence criterion met
   15     -93.4191947874      5.91e-12  Convergence criterion met
   12     -93.4191947879      7.20e-13  Convergence criterion met
   12     -93.4191947881      5.32e-12  Convergence criterion met
    9     -93.4191947882      7.23e-12  Convergence criterion met
   12     -93.4191947883      6.55e-12  Convergence criterion met
    8     -93.4191947883      9.43e-12  Convergence criterion met

 Nuclear Orbital Energies (a.u.)
 ---------------------------------------
  -- Occupied --
   -0.8862

Ground-State Mulliken Net Atomic Charges

     Atom                 Charge (a.u.)
  ----------------------------------------
      0                    -0.101527
      1                    -0.085827
      2                    0.187355
  Sum of atomic charges =     0.000000

         NEO-TDDFT Excitation Energies
 -------------------------------------------------

 Excited state   1: excitation energy (eV) =    0.3475
 Total energy for state   1:                -93.4064240061 au

 Excited state   2: excitation energy (eV) =    0.3475
 Total energy for state   2:                -93.4064240061 au

 Excited state   3: excitation energy (eV) =    0.5246
 Total energy for state   3:                -93.3999178696 au

 Excited state   4: excitation energy (eV) =    0.7495
 Total energy for state   4:                -93.3916502444 au

 Excited state   5: excitation energy (eV) =    0.9316
 Total energy for state   5:                -93.3849576309 au

 Excited state   6: excitation energy (eV) =    0.9319
 Total energy for state   6:                -93.3849492063 au

 Excited state   7: excitation energy (eV) =    1.1088
 Total energy for state   7:                -93.3784479232 au

 Excited state   8: excitation energy (eV) =    1.1088
 Total energy for state   8:                -93.3784479232 au

 Excited state   9: excitation energy (eV) =    1.1973
 Total energy for state   9:                -93.3751945370 au

 Excited state  10: excitation energy (eV) =    1.2120
 Total energy for state  10:                -93.3746531852 au

 Excited state  11: excitation energy (eV) =    1.2120
 Total energy for state  11:                -93.3746531852 au

 Excited state  12: excitation energy (eV) =    1.4405
 Total energy for state  12:                -93.3662569912 au

 Excited state  13: excitation energy (eV) =    1.7363
 Total energy for state  13:                -93.3553871907 au

 Excited state  14: excitation energy (eV) =    1.7753
 Total energy for state  14:                -93.3539530016 au

 Excited state  15: excitation energy (eV) =    1.7758
 Total energy for state  15:                -93.3539355709 au

 Excited state  16: excitation energy (eV) =    2.0071
 Total energy for state  16:                -93.3454360444 au

 Excited state  17: excitation energy (eV) =    2.0071
 Total energy for state  17:                -93.3454360444 au

 Excited state  18: excitation energy (eV) =    2.1887
 Total energy for state  18:                -93.3387631093 au

 Excited state  19: excitation energy (eV) =    2.3035
 Total energy for state  19:                -93.3345429861 au

 Excited state  20: excitation energy (eV) =    2.3035
 Total energy for state  20:                -93.3345429861 au

 Excited state  21: excitation energy (eV) =    2.6434
 Total energy for state  21:                -93.3220524600 au

 Excited state  22: excitation energy (eV) =    2.7264
 Total energy for state  22:                -93.3190024559 au

 Excited state  23: excitation energy (eV) =    2.7734
 Total energy for state  23:                -93.3172737801 au

 Excited state  24: excitation energy (eV) =    2.7736
 Total energy for state  24:                -93.3172672168 au

 Excited state  25: excitation energy (eV) =    3.0641
 Total energy for state  25:                -93.3065922278 au

 Excited state  26: excitation energy (eV) =    3.0641
 Total energy for state  26:                -93.3065922278 au

 Excited state  27: excitation energy (eV) =    3.3151
 Total energy for state  27:                -93.2973662610 au

 Excited state  28: excitation energy (eV) =    3.3342
 Total energy for state  28:                -93.2966646362 au

 Excited state  29: excitation energy (eV) =    3.3342
 Total energy for state  29:                -93.2966646362 au

 Excited state  30: excitation energy (eV) =    3.7624
 Total energy for state  30:                -93.2809300310 au

 Excited state  31: excitation energy (eV) =    3.7736
 Total energy for state  31:                -93.2805173728 au

 Excited state  32: excitation energy (eV) =    3.7755
 Total energy for state  32:                -93.2804481685 au

 Excited state  33: excitation energy (eV) =    3.8495
 Total energy for state  33:                -93.2777289239 au

 Excited state  34: excitation energy (eV) =    4.1527
 Total energy for state  34:                -93.2665870642 au

 Excited state  35: excitation energy (eV) =    4.1527
 Total energy for state  35:                -93.2665870642 au

 Excited state  36: excitation energy (eV) =    4.4549
 Total energy for state  36:                -93.2554794927 au

 Excited state  37: excitation energy (eV) =    4.4878
 Total energy for state  37:                -93.2542703515 au

 Excited state  38: excitation energy (eV) =    4.4878
 Total energy for state  38:                -93.2542703515 au

 Excited state  39: excitation energy (eV) =    4.7417
 Total energy for state  39:                -93.2449405753 au

 Excited state  40: excitation energy (eV) =    4.8271
 Total energy for state  40:                -93.2418024998 au

 Excited state  41: excitation energy (eV) =    4.8279
 Total energy for state  41:                -93.2417716617 au

 Excited state  42: excitation energy (eV) =    5.0859
 Total energy for state  42:                -93.2322908245 au

 Excited state  43: excitation energy (eV) =    5.1122
 Total energy for state  43:                -93.2313253522 au

 Excited state  44: excitation energy (eV) =    5.1122
 Total energy for state  44:                -93.2313253521 au

 Excited state  45: excitation energy (eV) =    5.5729
 Total energy for state  45:                -93.2143950266 au

 Excited state  46: excitation energy (eV) =    5.5729
 Total energy for state  46:                -93.2143950266 au

 Excited state  47: excitation energy (eV) =    5.6501
 Total energy for state  47:                -93.2115559646 au

 Excited state  48: excitation energy (eV) =    5.7881
 Total energy for state  48:                -93.2064868616 au

 Excited state  49: excitation energy (eV) =    5.7934
 Total energy for state  49:                -93.2062915390 au

 Excited state  50: excitation energy (eV) =    6.2160
 Total energy for state  50:                -93.1907625922 au

 Excited state  51: excitation energy (eV) =    6.6411
 Total energy for state  51:                -93.1751389477 au

 Excited state  52: excitation energy (eV) =    6.6411
 Total energy for state  52:                -93.1751389476 au

 Excited state  53: excitation energy (eV) =    6.8390
 Total energy for state  53:                -93.1678676464 au

 Excited state  54: excitation energy (eV) =    7.4524
 Total energy for state  54:                -93.1453236241 au

 Excited state  55: excitation energy (eV) =    7.4524
 Total energy for state  55:                -93.1453236240 au

 Excited state  56: excitation energy (eV) =    7.5104
 Total energy for state  56:                -93.1431940850 au

 Excited state  57: excitation energy (eV) =    7.5165
 Total energy for state  57:                -93.1429674130 au

 Excited state  58: excitation energy (eV) =    7.6397
 Total energy for state  58:                -93.1384413592 au

 Excited state  59: excitation energy (eV) =    7.8856
 Total energy for state  59:                -93.1294029795 au

 Excited state  60: excitation energy (eV) =    8.2214
 Total energy for state  60:                -93.1170628164 au

 Excited state  61: excitation energy (eV) =    8.2214
 Total energy for state  61:                -93.1170627721 au

 Excited state  62: excitation energy (eV) =    8.4637
 Total energy for state  62:                -93.1081585307 au

 Excited state  63: excitation energy (eV) =    8.7891
 Total energy for state  63:                -93.0962029554 au

 Excited state  64: excitation energy (eV) =    8.7891
 Total energy for state  64:                -93.0962029553 au

 Excited state  65: excitation energy (eV) =    9.3658
 Total energy for state  65:                -93.0750066900 au

 Excited state  66: excitation energy (eV) =    9.3658
 Total energy for state  66:                -93.0750066900 au

 Excited state  67: excitation energy (eV) =    9.4839
 Total energy for state  67:                -93.0706686926 au

 Excited state  68: excitation energy (eV) =    9.7999
 Total energy for state  68:                -93.0590539664 au

 Excited state  69: excitation energy (eV) =    9.8030
 Total energy for state  69:                -93.0589418807 au

 Excited state  70: excitation energy (eV) =    9.9220
 Total energy for state  70:                -93.0545684144 au

 Excited state  71: excitation energy (eV) =    9.9220
 Total energy for state  71:                -93.0545684144 au

 Excited state  72: excitation energy (eV) =   10.5045
 Total energy for state  72:                -93.0331608175 au

 Excited state  73: excitation energy (eV) =   10.5045
 Total energy for state  73:                -93.0331608174 au

 Excited state  74: excitation energy (eV) =   10.6130
 Total energy for state  74:                -93.0291735746 au

 Excited state  75: excitation energy (eV) =   11.4393
 Total energy for state  75:                -92.9988074849 au

 Excited state  76: excitation energy (eV) =   13.3345
 Total energy for state  76:                -92.9291620649 au

 Excited state  77: excitation energy (eV) =   14.0207
 Total energy for state  77:                -92.9039428050 au

 Excited state  78: excitation energy (eV) =   14.0207
 Total energy for state  78:                -92.9039428050 au

 Excited state  79: excitation energy (eV) =   14.5482
 Total energy for state  79:                -92.8845590889 au

 Excited state  80: excitation energy (eV) =   14.5482
 Total energy for state  80:                -92.8845590889 au

 Excited state  81: excitation energy (eV) =   14.6403
 Total energy for state  81:                -92.8811731386 au

 Excited state  82: excitation energy (eV) =   15.8692
 Total energy for state  82:                -92.8360131715 au

 Excited state  83: excitation energy (eV) =   15.8692
 Total energy for state  83:                -92.8360131715 au

 Excited state  84: excitation energy (eV) =   16.8759
 Total energy for state  84:                -92.7990154877 au

 Excited state  85: excitation energy (eV) =   18.0419
 Total energy for state  85:                -92.7561657675 au

 Excited state  86: excitation energy (eV) =   20.1942
 Total energy for state  86:                -92.6770728928 au

 Excited state  87: excitation energy (eV) =   20.1942
 Total energy for state  87:                -92.6770728653 au

 Excited state  88: excitation energy (eV) =   20.3219
 Total energy for state  88:                -92.6723771246 au

 Excited state  89: excitation energy (eV) =   21.3028
 Total energy for state  89:                -92.6363307129 au

 Excited state  90: excitation energy (eV) =   21.3623
 Total energy for state  90:                -92.6341449899 au

 Excited state  91: excitation energy (eV) =   21.3623
 Total energy for state  91:                -92.6341449899 au

 Excited state  92: excitation energy (eV) =   23.2221
 Total energy for state  92:                -92.5658000269 au

 Excited state  93: excitation energy (eV) =   23.3573
 Total energy for state  93:                -92.5608312702 au

 Excited state  94: excitation energy (eV) =   23.3573
 Total energy for state  94:                -92.5608312702 au

 Excited state  95: excitation energy (eV) =   23.8765
 Total energy for state  95:                -92.5417498718 au

 Excited state  96: excitation energy (eV) =   23.8765
 Total energy for state  96:                -92.5417498718 au

 Excited state  97: excitation energy (eV) =   25.1336
 Total energy for state  97:                -92.4955536357 au

 Excited state  98: excitation energy (eV) =   25.4484
 Total energy for state  98:                -92.4839841513 au

 Excited state  99: excitation energy (eV) =   26.2348
 Total energy for state  99:                -92.4550841200 au

 Excited state 100: excitation energy (eV) =   26.2348
 Total energy for state 100:                -92.4550841200 au

 Excited state 101: excitation energy (eV) =   26.7047
 Total energy for state 101:                -92.4378154477 au

 Excited state 102: excitation energy (eV) =   26.7047
 Total energy for state 102:                -92.4378154477 au

 Excited state 103: excitation energy (eV) =   28.1116
 Total energy for state 103:                -92.3861141268 au

 Excited state 104: excitation energy (eV) =   28.2159
 Total energy for state 104:                -92.3822789912 au

 Excited state 105: excitation energy (eV) =   28.2159
 Total energy for state 105:                -92.3822789912 au

 Excited state 106: excitation energy (eV) =   28.9272
 Total energy for state 106:                -92.3561405714 au

 Excited state 107: excitation energy (eV) =   28.9272
 Total energy for state 107:                -92.3561405491 au

 Excited state 108: excitation energy (eV) =   28.9777
 Total energy for state 108:                -92.3542846957 au

 Excited state 109: excitation energy (eV) =   29.0610
 Total energy for state 109:                -92.3512223008 au

 Excited state 110: excitation energy (eV) =   29.1700
 Total energy for state 110:                -92.3472167814 au

 Excited state 111: excitation energy (eV) =   29.3992
 Total energy for state 111:                -92.3387951486 au

 Excited state 112: excitation energy (eV) =   29.3992
 Total energy for state 112:                -92.3387951486 au

 Excited state 113: excitation energy (eV) =   30.4128
 Total energy for state 113:                -92.3015461575 au

 Excited state 114: excitation energy (eV) =   31.0359
 Total energy for state 114:                -92.2786471338 au

 Excited state 115: excitation energy (eV) =   33.1329
 Total energy for state 115:                -92.2015819601 au

 Excited state 116: excitation energy (eV) =   33.2027
 Total energy for state 116:                -92.1990191334 au

 Excited state 117: excitation energy (eV) =   34.6840
 Total energy for state 117:                -92.1445810984 au

 Excited state 118: excitation energy (eV) =   34.6840
 Total energy for state 118:                -92.1445810984 au

 Excited state 119: excitation energy (eV) =   35.6931
 Total energy for state 119:                -92.1074962109 au

 Excited state 120: excitation energy (eV) =   35.6931
 Total energy for state 120:                -92.1074962109 au

 Excited state 121: excitation energy (eV) =   36.0710
 Total energy for state 121:                -92.0936101771 au

 Excited state 122: excitation energy (eV) =   36.2272
 Total energy for state 122:                -92.0878679800 au

 Excited state 123: excitation energy (eV) =   36.2272
 Total energy for state 123:                -92.0878679800 au

 Excited state 124: excitation energy (eV) =   37.0032
 Total energy for state 124:                -92.0593504455 au

 Excited state 125: excitation energy (eV) =   37.0032
 Total energy for state 125:                -92.0593503932 au

 Excited state 126: excitation energy (eV) =   37.0681
 Total energy for state 126:                -92.0569657650 au

 Excited state 127: excitation energy (eV) =   37.0869
 Total energy for state 127:                -92.0562756991 au

 Excited state 128: excitation energy (eV) =   37.0869
 Total energy for state 128:                -92.0562756991 au

 Excited state 129: excitation energy (eV) =   37.3680
 Total energy for state 129:                -92.0459471304 au

 Excited state 130: excitation energy (eV) =   37.9692
 Total energy for state 130:                -92.0238539492 au

 Excited state 131: excitation energy (eV) =   37.9692
 Total energy for state 131:                -92.0238539492 au

 Excited state 132: excitation energy (eV) =   38.3354
 Total energy for state 132:                -92.0103959178 au

 Excited state 133: excitation energy (eV) =   38.3354
 Total energy for state 133:                -92.0103957698 au

 Excited state 134: excitation energy (eV) =   38.8478
 Excited state 135: excitation energy (eV) =   39.1443
 Excited state 136: excitation energy (eV) =   40.6728
 Excited state 137: excitation energy (eV) =   40.6728
 Excited state 138: excitation energy (eV) =   41.6362
 Excited state 139: excitation energy (eV) =   42.2807
 Excited state 140: excitation energy (eV) =   43.8595
 Excited state 141: excitation energy (eV) =   43.8595
 Excited state 142: excitation energy (eV) =   43.8990
 Excited state 143: excitation energy (eV) =   44.4699
 Excited state 144: excitation energy (eV) =   44.4699
 Excited state 145: excitation energy (eV) =   44.8874
 Excited state 146: excitation energy (eV) =   44.8874
 Excited state 147: excitation energy (eV) =   47.1687
 Excited state 148: excitation energy (eV) =   47.1687
 Excited state 149: excitation energy (eV) =   48.7785
 Excited state 150: excitation energy (eV) =   52.1498
 Total job time:  348.60s(wall), 1527.83s(cpu)
        *  Thank you very much for using Q-Chem.  Have a nice day.  *
