 Q-Chem 5.4 (devel), Q-Chem, Inc., Pleasanton, CA (2021)
 Q-Chem 5.4.1 for Intel X86 EM64T Linux

User input:
--------------------------------------------------------------
$molecule
+1 1
H      0.000000    0.000000    3.722
Au     0.000000    0.000000    2.222000
Au    -1.392000    0.000000    0.000000
Au     1.393000    0.000000    0.000000
Au     0.000000    0.000000   -2.411000
Au     2.626000    0.000000   -2.315000
Au    -2.614000    0.000000   -2.320000
Au     0.000000    0.000000    5.2219999999999995
Au    -1.392000    0.000000    7.443999999999999
Au     1.393000    0.000000    7.443999999999999
Au     0.000000    0.000000    9.855
Au     2.626000    0.000000    9.759
Au    -2.614000    0.000000    9.764
$end
$rem
jobtype = sp
sym_ignore = false
input_bohr = false
method = b3lyp
SCF_ALGORITHM = GDM
MAX_SCF_CYCLES=500
SCF_CONVERGENCE = 8
MEM_TOTAL = 100000
ECP = fit-LANL2DZ
basis = general
IANLTY     200
ESP_GRID     -1
$end

$basis
   H 0
   def2-qzvp
   ****
   Au 0
   LANL2DZ
   ****
$end

$plots
   plot the electrostatic potential on a line
   14001   -7.0   7.0
   1   0.0   0.0
   1   0.0   0.0
   0  0  0  0
   0
$end
--------------------------------------------------------------

             Standard Nuclear Orientation (Angstroms)
    I     Atom           X                Y                Z
 ----------------------------------------------------------------
    1      H       0.0000000000     0.0000000000     0.0021643836
    2      Au     -1.5000000000    -0.0000000000     0.0021643836
    3      Au     -3.7220000000    -0.0000000000     1.3941643836
    4      Au     -3.7220000000    -0.0000000000    -1.3908356164
    5      Au     -6.1330000000    -0.0000000000     0.0021643836
    6      Au     -6.0370000000    -0.0000000000    -2.6238356164
    7      Au     -6.0420000000    -0.0000000000     2.6161643836
    8      Au      1.5000000000     0.0000000000     0.0021643836
    9      Au      3.7220000000     0.0000000000     1.3941643836
   10      Au      3.7220000000     0.0000000000    -1.3908356164
   11      Au      6.1330000000     0.0000000000     0.0021643836
   12      Au      6.0370000000     0.0000000000    -2.6238356164
   13      Au      6.0420000000     0.0000000000     2.6161643836
 ----------------------------------------------------------------

   24   -1626.2483917824      7.99e-09  Convergence criterion met
 Total energy in the final basis set =    -1626.2483917824

             Orbital Energies (a.u.) and Symmetries
 --------------------------------------------------------------

 Alpha MOs, Restricted
 -- Occupied --
 -4.321  -4.321  -4.295  -4.295  -4.295  -4.295  -4.295  -4.295
  1 B1    1 A1    2 A1    2 B1    3 B1    3 A1    4 B1    4 A1
 -4.278  -4.278  -4.277  -4.277  -2.472  -2.469  -2.449  -2.449
  5 B1    5 A1    6 A1    6 B1    7 A1    7 B1    8 A1    8 B1
 -2.440  -2.440  -2.437  -2.437  -2.437  -2.437  -2.434  -2.434
  1 B2    1 A2    9 A1    9 B1   10 A1   10 B1   11 A1   11 B1
 -2.431  -2.431  -2.426  -2.426  -2.426  -2.426  -2.419  -2.419
 12 B1   12 A1   13 B1   13 A1   14 B1   14 A1    2 A2    2 B2
 -2.419  -2.419  -2.418  -2.418  -2.417  -2.417  -2.415  -2.415
  3 A2    3 B2    4 B2    4 A2   15 B1   15 A1   16 B1   16 A1
 -2.411  -2.411  -2.410  -2.410  -2.403  -2.403  -2.403  -2.403
 17 B1   17 A1   18 B1   18 A1    5 B2    5 A2    6 B2    6 A2
 -0.681  -0.549  -0.541  -0.536  -0.535  -0.532  -0.511  -0.506
 19 A1   19 B1   20 A1   21 A1   20 B1   21 B1   22 A1   22 B1
 -0.506  -0.502  -0.500  -0.493  -0.491  -0.490  -0.489  -0.480
 23 A1    7 B2   24 A1   23 B1   24 B1    7 A2   25 A1    8 B2
 -0.480  -0.467  -0.467  -0.464  -0.461  -0.459  -0.457  -0.452
  8 A2    9 B2    9 A2   26 A1   10 B2   10 A2   25 B1   11 B2
 -0.451  -0.449  -0.445  -0.441  -0.439  -0.438  -0.435  -0.433
 27 A1   26 B1   27 B1   11 A2   12 B2   12 A2   28 A1   28 B1
 -0.429  -0.428  -0.428  -0.427  -0.427  -0.424  -0.424  -0.424
 29 A1   30 A1   29 B1   13 B2   13 A2   31 A1   30 B1   31 B1
 -0.419  -0.419  -0.415  -0.415  -0.415  -0.413  -0.410  -0.408
 14 B2   14 A2   15 B2   15 A2   32 A1   32 B1   33 A1   34 A1
 -0.408  -0.408  -0.407  -0.404  -0.403  -0.401  -0.401  -0.401
 33 B1   34 B1   16 B2   35 A1   16 A2   36 A1   17 B2   17 A2
 -0.400  -0.396  -0.396  -0.391  -0.390  -0.389  -0.387  -0.362
 35 B1   18 A2   18 B2   37 A1   36 B1   37 B1   38 A1   39 A1
 -0.362  -0.354
 38 B1   39 B1

 Beta MOs, Restricted
 -- Occupied --
 -4.321  -4.321  -4.295  -4.295  -4.295  -4.295  -4.295  -4.295
  1 B1    1 A1    2 A1    2 B1    3 B1    3 A1    4 B1    4 A1
 -4.278  -4.278  -4.277  -4.277  -2.472  -2.469  -2.449  -2.449
  5 B1    5 A1    6 A1    6 B1    7 A1    7 B1    8 A1    8 B1
 -2.440  -2.440  -2.437  -2.437  -2.437  -2.437  -2.434  -2.434
  1 B2    1 A2    9 A1    9 B1   10 A1   10 B1   11 A1   11 B1
 -2.431  -2.431  -2.426  -2.426  -2.426  -2.426  -2.419  -2.419
 12 B1   12 A1   13 B1   13 A1   14 B1   14 A1    2 A2    2 B2
 -2.419  -2.419  -2.418  -2.418  -2.417  -2.417  -2.415  -2.415
  3 A2    3 B2    4 B2    4 A2   15 B1   15 A1   16 B1   16 A1
 -2.411  -2.411  -2.410  -2.410  -2.403  -2.403  -2.403  -2.403
 17 B1   17 A1   18 B1   18 A1    5 B2    5 A2    6 B2    6 A2
 -0.681  -0.549  -0.541  -0.536  -0.535  -0.532  -0.511  -0.506
 19 A1   19 B1   20 A1   21 A1   20 B1   21 B1   22 A1   22 B1
 -0.506  -0.502  -0.500  -0.493  -0.491  -0.490  -0.489  -0.480
 23 A1    7 B2   24 A1   23 B1   24 B1    7 A2   25 A1    8 B2
 -0.480  -0.467  -0.467  -0.464  -0.461  -0.459  -0.457  -0.452
  8 A2    9 B2    9 A2   26 A1   10 B2   10 A2   25 B1   11 B2
 -0.451  -0.449  -0.445  -0.441  -0.439  -0.438  -0.435  -0.433
 27 A1   26 B1   27 B1   11 A2   12 B2   12 A2   28 A1   28 B1
 -0.429  -0.428  -0.428  -0.427  -0.427  -0.424  -0.424  -0.424
 29 A1   30 A1   29 B1   13 B2   13 A2   31 A1   30 B1   31 B1
 -0.419  -0.419  -0.415  -0.415  -0.415  -0.413  -0.410  -0.408
 14 B2   14 A2   15 B2   15 A2   32 A1   32 B1   33 A1   34 A1
 -0.408  -0.408  -0.407  -0.404  -0.403  -0.401  -0.401  -0.401
 33 B1   34 B1   16 B2   35 A1   16 A2   36 A1   17 B2   17 A2
 -0.400  -0.396  -0.396  -0.391  -0.390  -0.389  -0.387  -0.362
 35 B1   18 A2   18 B2   37 A1   36 B1   37 B1   38 A1   39 A1
 -0.362  -0.354
 38 B1   39 B1

          Ground-State Mulliken Net Atomic Charges

     Atom                 Charge (a.u.)
  ----------------------------------------
      1 H                    -1.275350
      2 Au                    0.924480
      3 Au                    0.140492
      4 Au                    0.140148
      5 Au                    0.059574
      6 Au                   -0.063700
      7 Au                   -0.063319
      8 Au                    0.924480
      9 Au                    0.140492
     10 Au                    0.140148
     11 Au                    0.059574
     12 Au                   -0.063700
     13 Au                   -0.063319
  ----------------------------------------
  Sum of atomic charges =     1.000000

                    Cartesian Multipole Moments
 -----------------------------------------------------------------
    Charge (ESU x 10^10)
                 4.8032
    Dipole Moment (Debye)
         X      -0.0000000306      Y       0.0000000000      Z       0.0276881994
       Tot       0.0276881994
    Quadrupole Moments (Debye-Ang)
        XX    -112.7728     XY       0.0000     YY    -278.1826
        XZ      -0.0000     YZ       0.0000     ZZ    -232.4155

 Total job time:  15.07s(wall), 256.10s(cpu)
        *  Thank you very much for using Q-Chem.  Have a nice day.  *
