 Q-Chem 5.4 (devel), Q-Chem, Inc., Pleasanton, CA (2021)
 Q-Chem 5.4.2 for Intel X86 EM64T Linux

User input:
--------------------------------------------------------------
$molecule
0 1
N 0.0492158067 0.000 0.000
C 1.2046693425 0.000 0.000
H 2.1221148508 0.000 0.000
$end

$rem
sym_ignore = 1
input_bohr = false
method = b3lyp
neo = true
neo_epc = epc172
SCF_ALGORITHM = gdm
MEM_TOTAL = 16000
thresh = 14
s2thresh = 12
SCF_CONVERGENCE = 12
NEO_N_SCF_CONVERGENCE = 12
NEO_E_CONV = 12
MAX_SCF_CYCLES = 500
BASIS = mixed
NEO_PURECART = 2222
NEO_VPP = 0
NEO_BASIS_LIN_DEP_THRESH = 8
set_roots = 3
RPA = true
CIS_triplets = false
set_conv = 8
$end

$basis
N 1
cc-pvdz
****
C 2
cc-pvdz
****
H 3
cc-pv5z
****
$end

$neo_basis
H    3
S    1    1.000000
   5.973 1.0
S    1    1.000000
   10.645 1.0
S    1    1.000000
   17.943 1.0
S    1    1.000000
   28.950 1.0
P    1    1.000000
   7.604 1.0
P    1    1.000000
   14.701 1.0
P    1    1.000000
   23.308 1.0
D    1    1.000000
   9.011 1.0
D    1    1.000000
   19.787 1.0
F    1    1.000000
   10.914 1.0
F    1    1.000000
   20.985 1.0
****
$end

--------------------------------------------------------------

             Standard Nuclear Orientation (Angstroms)
    I     Atom           X                Y                Z
 ----------------------------------------------------------------
    1      N       0.0492158067     0.0000000000     0.0000000000
    2      C       1.2046693425     0.0000000000     0.0000000000
    3      H       2.1221148508     0.0000000000     0.0000000000
 ----------------------------------------------------------------

   19     -93.4168518587      8.90e-13  Convergence criterion met
 Total energy in the final basis set =      -93.4168518587
   21      18.2522622894      1.32e-13  Convergence criterion met
   19     -93.4105224458      1.13e-13  Convergence criterion met
   20     -93.4155897021      4.06e-13  Convergence criterion met
   19     -93.4187240404      7.90e-14  Convergence criterion met
   33     -93.4207685781      3.83e-13  Convergence criterion met
   19     -93.4221215737      5.65e-14  Convergence criterion met
   18     -93.4230579929      7.58e-13  Convergence criterion met
   19     -93.4236876617      4.58e-14  Convergence criterion met
   18     -93.4240985154      4.00e-13  Convergence criterion met
   19     -93.4243727368      5.01e-14  Convergence criterion met
   17     -93.4245579304      7.15e-13  Convergence criterion met
   19     -93.4246839698      3.75e-14  Convergence criterion met
   18     -93.4247698171      1.41e-13  Convergence criterion met
   12     -93.4249489674      3.14e-13  Convergence criterion met
   14     -93.4249489677      9.86e-13  Convergence criterion met
   11     -93.4249489679      7.79e-13  Convergence criterion met
   13     -93.4249489680      9.51e-13  Convergence criterion met
   11     -93.4249489681      5.06e-13  Convergence criterion met
   13     -93.4249489681      5.01e-13  Convergence criterion met
   11     -93.4249489681      3.44e-13  Convergence criterion met
   13     -93.4249489682      3.71e-13  Convergence criterion met
   11     -93.4249489682      2.30e-13  Convergence criterion met
   12     -93.4249489682      8.85e-13  Convergence criterion met
   10     -93.4249489682      9.56e-13  Convergence criterion met
   12     -93.4249489682      3.11e-13  Convergence criterion met
   10     -93.4249489682      8.20e-13  Convergence criterion met
   12     -93.4249489682      6.24e-13  Convergence criterion met
    8     -93.4249489682      8.35e-13  Convergence criterion met

 Nuclear Orbital Energies (a.u.)
 ---------------------------------------
  -- MO Energies --
   -0.8856    -0.8766    -0.8766    -0.8723    -0.8670    -0.8633    -0.8633    -0.8617
   -0.8538    -0.8512    -0.8453    -0.8357    -0.8291    -0.8291    -0.8253    -0.8241
   -0.8241    -0.8135    -0.7998    -0.7998    -0.7993    -0.7817    -0.7725    -0.7725
   -0.7677    -0.7670    -0.7635    -0.7635    -0.7613    -0.7364    -0.7296    -0.7296
   -0.7122    -0.7122    -0.6987    -0.6792    -0.6752    -0.6720    -0.6491    -0.6491
   -0.5637    -0.5563    -0.5563    -0.4100    -0.2768
  -- MO Populations --
    1.0000     0.0000     0.0000     0.0000     0.0000     0.0000     0.0000     0.0000
    0.0000     0.0000     0.0000     0.0000     0.0000     0.0000     0.0000     0.0000
    0.0000     0.0000     0.0000     0.0000     0.0000     0.0000     0.0000     0.0000
    0.0000     0.0000     0.0000     0.0000     0.0000     0.0000     0.0000     0.0000
    0.0000     0.0000     0.0000     0.0000     0.0000     0.0000     0.0000     0.0000
    0.0000     0.0000     0.0000     0.0000     0.0000

Ground-State Mulliken Net Atomic Charges

     Atom                 Charge (a.u.)
  ----------------------------------------
      0                    -0.082584
      1                    -0.048369
      2                    0.130953
----------------------------------------
 Sum of atomic charges =   0.000000

         NEO-TDDFT Excitation Energies
 -------------------------------------------------

 Excited state   1: excitation energy (eV) =    0.2215
 Total energy for state   1:                -93.4168085372 au

 Excited state   2: excitation energy (eV) =    0.2215
 Total energy for state   2:                -93.4168085056 au

 Excited state   3: excitation energy (eV) =    0.4569
 Total energy for state   3:                -93.4081586479 au

NEO-TDDFT time:      CPU 910.67s  wall 259.08s
 Total job time:  444.78s(wall), 1461.05s(cpu)
 Mon Feb 20 16:01:11 2023

        *************************************************************
        *                                                           *
        *  Thank you very much for using Q-Chem.  Have a nice day.  *
        *                                                           *
        *************************************************************
